ITEM: TIMESTEP
100
ITEM: NUMBER OF ATOMS
3871
ITEM: BOX BOUNDS ss ss ss
-2.4734519110823591e+01 2.4734519110884928e+01
-2.3765722206277651e+01 2.3765722205707824e+01
-2.7654014354526140e+01 2.7654014354491320e+01
ITEM: ATOMS id type x y z
3341 1 -5.80329 -2.38923 -23.413
2954 1 -0.758525 -2.3345 -26.261
2955 1 -1.52981 -4.70828 -24.7906
3334 1 -3.2732 -2.37812 -24.8714
2134 1 -0.766829 -2.36006 -23.465
3342 1 -4.0656 -4.78094 -23.413
2964 1 4.0051 -2.90988 -24.7906
3335 1 1.25025 -3.84787 -24.8714
3343 1 0.478977 -6.25756 -23.413
3344 1 3.2906 -5.34401 -23.413
2946 1 -4.95058 6.30594e-11 -24.7906
2945 1 -2.45464 1.8854e-11 -26.261
2881 1 -2.92685e-12 -8.14989e-12 -27.6485
2126 1 -2.48151 9.59538e-11 -23.465
2069 1 5.02529e-11 1.41088e-10 -24.8742
2927 1 1.98584 1.4428 -26.261
2963 1 1.98584 -1.4428 -26.261
3336 1 4.04589 3.71751e-10 -24.8714
2110 1 2.00758 1.4586 -23.465
2142 1 2.00758 -1.4586 -23.465
3345 1 6.09931 -1.47816 -23.413
3346 1 6.09931 1.47816 -23.413
3340 1 -5.80329 2.38923 -23.413
2936 1 -0.758525 2.3345 -26.261
2937 1 -1.52981 4.70828 -24.7906
3333 1 -3.2732 2.37812 -24.8714
2118 1 -0.766829 2.36006 -23.465
3339 1 -4.0656 4.78094 -23.413
2928 1 4.0051 2.90988 -24.7906
3332 1 1.25025 3.84787 -24.8714
3337 1 3.2906 5.34401 -23.413
3338 1 0.478977 6.25756 -23.413
2958 1 -3.8602 -11.8805 -20.2123
3374 1 -1.07721 -11.0684 -20.3844
3355 1 -4.85192 -7.18555 -21.9146
3372 1 -7.40913 -7.21974 -20.4526
3373 1 -5.63435 -9.58767 -20.3844
2136 1 -2.31373 -7.12094 -20.4965
2956 1 -2.30526 -7.09485 -23.2871
2957 1 -3.08278 -9.48781 -21.7587
3356 1 -0.298275 -8.66512 -21.9146
3357 1 2.5261 -7.77454 -21.9566
3375 1 1.75045 -10.1959 -20.4526
3358 1 5.33454 -6.83491 -21.9146
3376 1 4.57683 -9.27752 -20.4526
3377 1 7.37731 -8.32134 -20.3844
2967 1 10.1061 -7.34254 -20.2123
3370 1 -10.8595 -2.39583 -20.3844
3371 1 -9.15593 -4.81548 -20.4526
3353 1 -8.33319 -2.39399 -21.9146
2459 1 -5.82874 -2.41244 -20.6015
3354 1 -6.61342 -4.80493 -21.9566
1484 1 -0.767766 -2.36294 -20.6487
2135 1 -1.53925 -4.73732 -21.9979
2452 1 -3.30035 -2.39784 -22.0609
2460 1 -4.09555 -4.79797 -20.6015
1485 1 -1.54009 -4.73991 -19.1838
1745 1 -3.299 -2.39686 -19.2376
2143 1 4.02981 -2.92783 -21.9979
2453 1 1.26062 -3.87979 -22.0609
2461 1 0.493191 -6.28895 -20.6015
2462 1 3.29755 -5.37776 -20.6015
1492 1 4.032 -2.92942 -19.1838
1746 1 1.26011 -3.87821 -19.2376
2144 1 6.05743 -4.40098 -20.4965
2965 1 6.03524 -4.38486 -23.2871
2966 1 8.07081 -5.86379 -21.7587
3359 1 8.14885 -2.96135 -21.9146
3378 1 10.1938 -4.4448 -20.3844
2949 1 -12.4919 2.07878e-10 -20.2123
2948 1 -9.97607 1.2762e-10 -21.7587
2127 1 -4.98112 6.21024e-11 -21.9979
2128 1 -7.4874 1.73033e-10 -20.4965
2947 1 -7.45997 1.6314e-10 -23.2871
1478 1 -4.98383 9.6416e-11 -19.1838
1477 1 -2.48454 1.91554e-11 -20.6487
935 1 5.8839e-12 1.65454e-11 -19.2556
1427 1 5.84213e-12 1.64396e-11 -22.0632
1463 1 2.01004 1.46038 -20.6487
1491 1 2.01004 -1.46038 -20.6487
2454 1 4.07945 1.76381e-10 -22.0609
1747 1 4.07779 -5.41709e-11 -19.2376
2463 1 6.13355 -1.47434 -20.6015
2464 1 6.13355 1.47434 -20.6015
3360 1 8.17463 -1.18271e-10 -21.9566
3379 1 10.2378 -1.48592 -20.4526
3380 1 10.2378 1.48592 -20.4526
3368 1 -9.15593 4.81548 -20.4526
3369 1 -10.8595 2.39583 -20.3844
3352 1 -8.33319 2.39399 -21.9146
2458 1 -5.82874 2.41244 -20.6015
3351 1 -6.61342 4.80493 -21.9566
1470 1 -0.767766 2.36294 -20.6487
2119 1 -1.53925 4.73732 -21.9979
2451 1 -3.30035 2.39784 -22.0609
2457 1 -4.09555 4.79797 -20.6015
1471 1 -1.54009 4.73991 -19.1838
1744 1 -3.299 2.39686 -19.2376
2111 1 4.02981 2.92783 -21.9979
2450 1 1.26062 3.87979 -22.0609
2455 1 3.29755 5.37776 -20.6015
2456 1 0.493191 6.28895 -20.6015
1464 1 4.032 2.92942 -19.1838
1743 1 1.26011 3.87821 -19.2376
2112 1 6.05743 4.40098 -20.4965
2929 1 6.03524 4.38486 -23.2871
2930 1 8.07081 5.86379 -21.7587
3361 1 8.14885 2.96135 -21.9146
3381 1 10.1938 4.4448 -20.3844
3350 1 -4.85192 7.18555 -21.9146
3366 1 -5.63435 9.58767 -20.3844
3367 1 -7.40913 7.21974 -20.4526
2120 1 -2.31373 7.12094 -20.4965
2938 1 -2.30526 7.09485 -23.2871
2939 1 -3.08278 9.48781 -21.7587
3349 1 -0.298275 8.66512 -21.9146
3348 1 2.5261 7.77454 -21.9566
3364 1 1.75045 10.1959 -20.4526
3347 1 5.33454 6.83491 -21.9146
3362 1 7.37731 8.32134 -20.3844
3363 1 4.57683 9.27752 -20.4526
2931 1 10.1061 7.34254 -20.2123
2940 1 -3.8602 11.8805 -20.2123
3365 1 -1.07721 11.0684 -20.3844
2960 1 -5.40546 -16.6363 -17.0867
2961 1 -6.1678 -18.9825 -15.5147
3457 1 -7.9415 -16.7097 -15.6613
3425 1 -2.62859 -15.8371 -17.2539
3458 1 -3.39692 -18.1863 -15.6613
3459 1 -0.584937 -17.3493 -15.7345
3460 1 2.23733 -16.4778 -15.7736
3461 1 5.06069 -15.5752 -15.7858
3423 1 -8.96744 -12.0157 -17.336
3455 1 -11.4954 -12.0157 -15.7736
3456 1 -9.72446 -14.3797 -15.7345
2139 1 -4.63036 -14.2508 -15.8632
2514 1 -6.42704 -11.9506 -16.0105
2959 1 -4.63528 -14.2659 -18.6537
3396 1 -6.41192 -11.9808 -18.8292
3424 1 -7.18224 -14.3575 -17.2539
2138 1 -3.86169 -11.8851 -17.4231
2492 1 -1.05248 -11.0757 -17.57
2515 1 -1.8248 -13.446 -16.0105
3397 1 -1.85478 -13.4615 -18.8292
2516 1 0.99034 -12.5937 -16.082
2517 1 3.8018 -11.7007 -16.1047
3398 1 0.971142 -12.604 -18.9099
3399 1 3.80285 -11.704 -18.9351
3426 1 0.192142 -14.9919 -17.336
3427 1 3.02177 -14.1079 -17.373
3428 1 5.84775 -13.1897 -17.373
3462 1 7.87536 -14.6459 -15.7736
3429 1 8.65655 -12.2416 -17.336
3430 1 11.4354 -11.2674 -17.2539
3463 1 10.6709 -13.6921 -15.7345
2970 1 16.1475 -11.7319 -15.5147
3464 1 13.4378 -12.7164 -15.6613
3453 1 -14.9799 -7.21974 -15.7736
3454 1 -13.2491 -9.62601 -15.7858
3421 1 -12.4836 -7.23346 -17.373
2512 1 -9.95325 -7.23146 -16.1047
3394 1 -9.956 -7.23346 -18.9351
3422 1 -10.7371 -9.63737 -17.373
1766 1 -4.87231 -7.17773 -16.2689
2473 1 -4.88114 -7.1928 -19.1023
2490 1 -7.42898 -7.22245 -17.6312
2491 1 -5.65866 -9.57906 -17.57
2513 1 -8.20357 -9.60637 -16.082
3395 1 -8.1941 -9.626 -18.9099
1486 1 -2.31313 -7.11908 -17.6818
1487 1 -3.08485 -9.49419 -16.1525
1767 1 -0.277182 -8.67078 -16.2689
2137 1 -3.08861 -9.50578 -18.9692
2474 1 -0.278898 -8.68816 -19.1023
1768 1 2.5304 -7.78776 -16.3029
2475 1 2.53551 -7.80349 -19.1399
2493 1 1.76492 -10.2097 -17.6312
1769 1 5.3208 -6.85188 -16.2689
2476 1 5.33241 -6.86494 -19.1023
2494 1 4.57327 -9.29724 -17.6312
2495 1 7.36161 -8.3418 -17.57
2518 1 6.60116 -10.7706 -16.082
3400 1 6.62276 -10.7676 -18.9099
2146 1 10.11 -7.34537 -17.4231
2147 1 12.1224 -8.80746 -15.8632
2519 1 9.37962 -9.80541 -16.0105
2968 1 12.1353 -8.81683 -18.6537
3401 1 9.41302 -9.80036 -18.8292
2969 1 14.1517 -10.2818 -17.0867
3431 1 14.2497 -7.39387 -17.2539
3465 1 16.2465 -8.85055 -15.6613
3451 1 -18.3459 -2.38923 -15.6613
3452 1 -16.681 -4.80493 -15.7345
2510 1 -13.3518 -2.41954 -16.0105
3392 1 -13.3758 -2.39583 -18.8292
3419 1 -15.8743 -2.39399 -17.2539
3420 1 -14.1987 -4.81548 -17.336
2488 1 -10.8589 -2.42161 -17.57
2489 1 -9.16464 -4.83352 -17.6312
2511 1 -11.6712 -4.83352 -16.082
3393 1 -11.687 -4.81845 -18.9099
1764 1 -8.33205 -2.4158 -16.2689
2471 1 -8.34912 -2.41954 -19.1023
1752 1 -5.82201 -2.41026 -17.7744
1765 1 -6.62467 -4.8131 -16.3029
2472 1 -6.63804 -4.82282 -19.1399
1200 1 -5.80804 -2.40311 -14.9539
614 1 -0.765928 -2.35729 -15.0413
984 1 -0.767159 -2.36107 -17.8406
985 1 -1.53838 -4.73465 -16.3736
1193 1 -3.29291 -2.39244 -16.4249
1753 1 -4.09139 -4.79225 -17.7744
1201 1 -4.08028 -4.78117 -14.9539
991 1 4.02753 -2.92617 -16.3736
1194 1 1.25778 -3.87105 -16.4249
1754 1 0.493196 -6.28187 -17.7744
1755 1 3.29339 -5.37203 -17.7744
1202 1 0.490712 -6.26638 -14.9539
1203 1 3.28629 -5.35804 -14.9539
1493 1 6.05585 -4.39983 -17.6818
1494 1 8.07624 -5.86773 -16.1525
1770 1 8.16074 -2.94303 -16.2689
2145 1 8.0861 -5.87489 -18.9692
2477 1 8.17675 -2.95004 -19.1023
2496 1 10.2084 -4.42355 -17.57
2520 1 12.224 -5.89051 -16.0105
2521 1 12.2833 -2.94978 -16.082
3402 1 12.2295 -5.92383 -18.8292
3403 1 12.2872 -2.97123 -18.9099
3432 1 14.3175 -4.45 -17.336
3466 1 16.3194 -5.91755 -15.7345
3467 1 16.3627 -2.96408 -15.7736
2951 1 -17.4924 1.33209e-10 -17.0867
2952 1 -19.9594 1.17842e-10 -15.5147
2131 1 -14.9842 1.51137e-10 -15.8632
2950 1 -15.0001 8.2022e-11 -18.6537
2130 1 -12.4967 2.76854e-10 -17.4231
1480 1 -9.98278 4.49666e-11 -16.1525
2129 1 -9.99497 2.84998e-10 -18.9692
979 1 -4.9783 1.87404e-10 -16.3736
1479 1 -7.48544 -5.38474e-11 -17.6818
609 1 -2.4786 1.11404e-10 -15.0413
978 1 -2.48258 1.04275e-10 -17.8406
573 1 6.44363e-11 1.80876e-10 -16.4566
599 1 2.00523 1.45688 -15.0413
619 1 2.00523 -1.45688 -15.0413
966 1 2.00845 1.45922 -17.8406
990 1 2.00845 -1.45922 -17.8406
1195 1 4.07026 -3.01648e-11 -16.4249
1756 1 6.12682 -1.47215 -17.7744
1757 1 6.12682 1.47215 -17.7744
1771 1 8.18854 7.50862e-11 -16.3029
2478 1 8.20507 1.9244e-10 -19.1399
1204 1 6.11132 -1.46972 -14.9539
1205 1 6.11132 1.46972 -14.9539
2497 1 10.2554 -1.47644 -17.6312
2498 1 10.2554 1.47644 -17.6312
2522 1 12.3029 3.09162e-10 -16.1047
3404 1 12.3063 1.37582e-10 -18.9351
3433 1 14.3512 -1.4857 -17.373
3434 1 14.3512 1.4857 -17.373
3468 1 16.3767 1.75021e-10 -15.7858
3450 1 -18.3459 2.38923 -15.6613
3449 1 -16.681 4.80493 -15.7345
2509 1 -13.3518 2.41954 -16.0105
3391 1 -13.3758 2.39583 -18.8292
3417 1 -14.1987 4.81548 -17.336
3418 1 -15.8743 2.39399 -17.2539
2486 1 -9.16464 4.83352 -17.6312
2487 1 -10.8589 2.42161 -17.57
2508 1 -11.6712 4.83352 -16.082
3390 1 -11.687 4.81845 -18.9099
1763 1 -8.33205 2.4158 -16.2689
2470 1 -8.34912 2.41954 -19.1023
1751 1 -5.82201 2.41026 -17.7744
1762 1 -6.62467 4.8131 -16.3029
2469 1 -6.63804 4.82282 -19.1399
1199 1 -5.80804 2.40311 -14.9539
604 1 -0.765928 2.35729 -15.0413
972 1 -0.767159 2.36107 -17.8406
973 1 -1.53838 4.73465 -16.3736
1192 1 -3.29291 2.39244 -16.4249
1750 1 -4.09139 4.79225 -17.7744
1198 1 -4.08028 4.78117 -14.9539
967 1 4.02753 2.92617 -16.3736
1191 1 1.25778 3.87105 -16.4249
1748 1 3.29339 5.37203 -17.7744
1749 1 0.493196 6.28187 -17.7744
1196 1 3.28629 5.35804 -14.9539
1197 1 0.490712 6.26638 -14.9539
1465 1 6.05585 4.39983 -17.6818
1466 1 8.07624 5.86773 -16.1525
1772 1 8.16074 2.94303 -16.2689
2113 1 8.0861 5.87489 -18.9692
2479 1 8.17675 2.95004 -19.1023
2499 1 10.2084 4.42355 -17.57
2523 1 12.2833 2.94978 -16.082
2524 1 12.224 5.89051 -16.0105
3405 1 12.2872 2.97123 -18.9099
3406 1 12.2295 5.92383 -18.8292
3435 1 14.3175 4.45 -17.336
3469 1 16.3627 2.96408 -15.7736
3470 1 16.3194 5.91755 -15.7345
3447 1 -13.2491 9.62601 -15.7858
3448 1 -14.9799 7.21974 -15.7736
3416 1 -12.4836 7.23346 -17.373
2507 1 -9.95325 7.23146 -16.1047
3389 1 -9.956 7.23346 -18.9351
3415 1 -10.7371 9.63737 -17.373
1761 1 -4.87231 7.17773 -16.2689
2468 1 -4.88114 7.1928 -19.1023
2484 1 -5.65866 9.57906 -17.57
2485 1 -7.42898 7.22245 -17.6312
2506 1 -8.20357 9.60637 -16.082
3388 1 -8.1941 9.626 -18.9099
1472 1 -2.31313 7.11908 -17.6818
1473 1 -3.08485 9.49419 -16.1525
1760 1 -0.277182 8.67078 -16.2689
2121 1 -3.08861 9.50578 -18.9692
2467 1 -0.278898 8.68816 -19.1023
1759 1 2.5304 7.78776 -16.3029
2466 1 2.53551 7.80349 -19.1399
2482 1 1.76492 10.2097 -17.6312
1758 1 5.3208 6.85188 -16.2689
2465 1 5.33241 6.86494 -19.1023
2480 1 7.36161 8.3418 -17.57
2481 1 4.57327 9.29724 -17.6312
2501 1 6.60116 10.7706 -16.082
3383 1 6.62276 10.7676 -18.9099
2114 1 10.11 7.34537 -17.4231
2115 1 12.1224 8.80746 -15.8632
2500 1 9.37962 9.80541 -16.0105
2932 1 12.1353 8.81683 -18.6537
3382 1 9.41302 9.80036 -18.8292
2933 1 14.1517 10.2818 -17.0867
3436 1 14.2497 7.39387 -17.2539
3471 1 16.2465 8.85055 -15.6613
3414 1 -8.96744 12.0157 -17.336
3445 1 -9.72446 14.3797 -15.7345
3446 1 -11.4954 12.0157 -15.7736
2123 1 -4.63036 14.2508 -15.8632
2505 1 -6.42704 11.9506 -16.0105
2941 1 -4.63528 14.2659 -18.6537
3387 1 -6.41192 11.9808 -18.8292
3413 1 -7.18224 14.3575 -17.2539
2122 1 -3.86169 11.8851 -17.4231
2483 1 -1.05248 11.0757 -17.57
2504 1 -1.8248 13.446 -16.0105
3386 1 -1.85478 13.4615 -18.8292
2502 1 3.8018 11.7007 -16.1047
2503 1 0.99034 12.5937 -16.082
3384 1 3.80285 11.704 -18.9351
3385 1 0.971142 12.604 -18.9099
3410 1 3.02177 14.1079 -17.373
3411 1 0.192142 14.9919 -17.336
3409 1 5.84775 13.1897 -17.373
3439 1 7.87536 14.6459 -15.7736
3407 1 11.4354 11.2674 -17.2539
3408 1 8.65655 12.2416 -17.336
3438 1 10.6709 13.6921 -15.7345
2934 1 16.1475 11.7319 -15.5147
3437 1 13.4378 12.7164 -15.6613
2942 1 -5.40546 16.6363 -17.0867
2943 1 -6.1678 18.9825 -15.5147
3444 1 -7.9415 16.7097 -15.6613
3412 1 -2.62859 15.8371 -17.2539
3442 1 -0.584937 17.3493 -15.7345
3443 1 -3.39692 18.1863 -15.6613
3441 1 2.23733 16.4778 -15.7736
3440 1 5.06069 15.5752 -15.7858
3133 1 -9.37379 -21.2949 -12.4228
2067 1 -6.87505 -21.1592 -11.1241
2879 1 -7.64185 -23.5192 -12.3648
2962 1 -6.91915 -21.2949 -13.9398
3134 1 -4.9333 -22.7377 -12.4228
2294 1 -4.13506 -20.3637 -11.1798
3496 1 -4.16023 -20.4996 -14.0505
2295 1 -1.36188 -19.5217 -11.2145
3135 1 -2.16269 -21.8924 -12.455
3497 1 -1.3624 -19.6645 -14.107
3136 1 0.629784 -21.0212 -12.4762
3137 1 3.43553 -20.1297 -12.4881
3131 1 -12.8654 -16.6363 -12.4762
2292 1 -10.3728 -16.5939 -11.2145
2293 1 -8.62415 -18.9051 -11.1798
3132 1 -11.1184 -18.9825 -12.455
3494 1 -10.4563 -16.7097 -14.107
3495 1 -8.68368 -19.0299 -14.0505
1490 1 -5.36382 -16.5081 -11.4567
2140 1 -5.39169 -16.5939 -14.293
2141 1 -6.14264 -18.9051 -12.7134
2575 1 -7.92187 -16.6214 -12.8179
1836 1 -2.58168 -15.702 -11.5541
2543 1 -2.59424 -15.7911 -14.4267
2576 1 -3.3609 -18.1034 -12.8179
2577 1 -0.564987 -17.2654 -12.8765
2296 1 1.42708 -18.6518 -11.2358
2578 1 2.23558 -16.396 -12.9086
3498 1 1.44736 -18.7984 -14.1402
2297 1 4.22441 -17.76 -11.2458
2298 1 7.02142 -16.8511 -11.2458
2579 1 5.03601 -15.4993 -12.9188
3138 1 6.24594 -19.223 -12.4919
3499 1 4.26297 -17.9063 -14.1557
3500 1 7.07625 -16.9922 -14.1557
2299 1 9.8087 -15.9284 -11.2358
3139 1 9.05255 -18.3047 -12.4881
3140 1 11.8464 -17.3767 -12.4762
3501 1 9.87852 -16.059 -14.1402
3141 1 14.6177 -16.4401 -12.455
3142 1 17.356 -15.4955 -12.4228
2290 1 -13.8567 -11.8851 -11.2458
3129 1 -16.3521 -11.8805 -12.4919
3130 1 -14.6114 -14.2659 -12.4881
3492 1 -13.9739 -11.9808 -14.1557
1834 1 -8.905 -11.8987 -11.6084
2291 1 -12.1178 -14.2508 -11.2358
2541 1 -8.95955 -11.9677 -14.4969
2573 1 -11.4459 -11.9506 -12.9086
2574 1 -9.69128 -14.3001 -12.8765
3493 1 -12.2204 -14.3575 -14.1402
1489 1 -4.61353 -14.199 -13.037
1807 1 -6.40043 -11.8987 -13.1563
1835 1 -7.14079 -14.2207 -11.5541
2542 1 -7.18299 -14.3001 -14.4267
988 1 -3.83758 -11.8108 -11.7752
1233 1 -1.045 -10.9928 -11.8824
1488 1 -3.85267 -11.8573 -14.6027
1785 1 -1.04759 -11.0419 -14.7281
1808 1 -1.81584 -13.3883 -13.1563
1809 1 0.987019 -12.5378 -13.2162
1810 1 3.78491 -11.6487 -13.2351
1837 1 0.2104 -14.8605 -11.6084
1838 1 3.00315 -13.9849 -11.6336
2544 1 0.213999 -14.9484 -14.4969
2545 1 3.02248 -14.0701 -14.5296
1839 1 5.79052 -13.0792 -11.6336
2546 1 5.82495 -13.1595 -14.5296
2580 1 7.8287 -14.5787 -12.9086
1840 1 8.56456 -12.1461 -11.6084
1841 1 11.318 -11.1857 -11.5541
2547 1 8.6133 -12.2193 -14.4969
2548 1 11.3806 -11.2504 -14.4267
2581 1 10.6055 -13.6359 -12.8765
2149 1 16.0816 -11.684 -12.7134
2300 1 12.5764 -14.9929 -11.2145
2301 1 15.3148 -14.0441 -11.1798
2582 1 13.3599 -12.6704 -12.8179
3502 1 12.6607 -15.1081 -14.107
3503 1 15.4151 -14.1392 -14.0505
2068 1 17.9991 -13.0771 -11.1241
2880 1 20.0066 -14.5357 -12.3648
2971 1 18.1146 -13.161 -13.9398
3143 1 20.1004 -11.7182 -12.4228
2288 1 -17.2979 -7.12094 -11.2358
3127 1 -19.7977 -7.09486 -12.4762
3128 1 -18.0829 -9.48782 -12.4881
3490 1 -17.4311 -7.18556 -14.1402
2289 1 -15.5853 -9.50578 -11.2458
2571 1 -14.9027 -7.19281 -12.9086
2572 1 -13.1845 -9.57907 -12.9188
3491 1 -15.7126 -9.58768 -14.1557
1832 1 -12.3724 -7.17773 -11.6336
2539 1 -12.4475 -7.22245 -14.5296
1805 1 -9.90902 -7.19932 -13.2351
1833 1 -10.6497 -9.54881 -11.6336
2540 1 -10.7154 -9.60637 -14.5296
1214 1 -4.85466 -7.15491 -13.4376
1231 1 -7.37171 -7.1666 -11.9277
1232 1 -5.61599 -9.5076 -11.8824
1783 1 -7.40641 -7.19932 -14.7818
1784 1 -5.64272 -9.54881 -14.7281
1806 1 -8.16805 -9.56314 -13.2162
616 1 -2.30229 -7.08573 -12.055
986 1 -2.30908 -7.10661 -14.8673
987 1 -3.07658 -9.46874 -13.3323
1215 1 -0.278048 -8.64195 -13.4376
1216 1 2.52157 -7.7606 -13.468
1234 1 1.75142 -10.1309 -11.9277
1786 1 1.76026 -10.1778 -14.7818
1217 1 5.30455 -6.82805 -13.4376
1235 1 4.53786 -9.22551 -11.9277
1236 1 7.30683 -8.27913 -11.8824
1787 1 4.55825 -9.26863 -14.7818
1788 1 7.33776 -8.31729 -14.7281
1811 1 6.57102 -10.7234 -13.2162
994 1 10.0469 -7.2995 -11.7752
1495 1 10.0864 -7.32821 -14.6027
1496 1 12.0784 -8.77546 -13.037
1812 1 9.33852 -9.76408 -13.1563
1497 1 14.0427 -10.2026 -11.4567
1842 1 14.1357 -7.30752 -11.5541
2148 1 14.1156 -10.2556 -14.293
2549 1 14.2166 -7.34699 -14.4267
2583 1 16.1787 -8.79065 -12.8179
2302 1 18.0892 -10.2254 -11.1798
2303 1 18.1454 -7.32778 -11.2145
3144 1 20.1526 -8.82197 -12.455
3504 1 18.2107 -10.2913 -14.0505
3505 1 18.281 -7.37239 -14.107
3125 1 -23.1494 -2.3345 -12.4228
3126 1 -21.4892 -4.70829 -12.455
2286 1 -20.6448 -2.36006 -11.1798
3488 1 -20.7819 -2.37812 -14.0505
2287 1 -18.9871 -4.73733 -11.2145
2569 1 -18.2559 -2.39784 -12.8179
3489 1 -19.1231 -4.78094 -14.107
2570 1 -16.595 -4.79798 -12.8765
1803 1 -13.2942 -2.41026 -13.1563
1830 1 -15.7313 -2.39687 -11.5541
1831 1 -14.0682 -4.79225 -11.6084
2537 1 -15.8199 -2.41245 -14.4267
2538 1 -14.1506 -4.82282 -14.4969
1229 1 -10.7777 -2.40311 -11.8824
1230 1 -9.09382 -4.79631 -11.9277
1781 1 -10.8252 -2.4158 -14.7281
1782 1 -9.13567 -4.8192 -14.7818
1804 1 -11.6191 -4.8131 -13.2162
1212 1 -8.3049 -2.40607 -13.4376
783 1 -5.78844 -2.39384 -12.1376
1213 1 -6.60156 -4.79631 -13.468
354 1 -0.763998 -2.35135 -12.2506
355 1 -1.53023 -4.70957 -10.7695
474 1 -3.27246 -2.37758 -10.8222
615 1 -1.53509 -4.72453 -13.5688
776 1 -3.28421 -2.38612 -13.6204
784 1 -4.0654 -4.7654 -12.1376
359 1 4.0062 -2.91068 -10.7695
475 1 1.24997 -3.84701 -10.8222
620 1 4.01893 -2.91992 -13.5688
777 1 1.25446 -3.86082 -13.6204
785 1 0.48795 -6.24487 -12.1376
786 1 3.27588 -5.33902 -12.1376
621 1 6.02748 -4.37922 -12.055
992 1 6.04524 -4.39213 -14.8673
993 1 8.05459 -5.852 -13.3323
1218 1 8.13306 -2.93495 -13.4376
1237 1 10.1319 -4.39082 -11.8824
1789 1 10.1777 -4.40844 -14.7281
1813 1 12.172 -5.86419 -13.1563
1814 1 12.2292 -2.93568 -13.2162
1843 1 14.1982 -4.39204 -11.6084
2550 1 14.2829 -4.41577 -14.4969
2584 1 16.2458 -5.87265 -12.8765
2585 1 16.2843 -2.94048 -12.9086
2304 1 18.1799 -4.40648 -11.2358
3145 1 20.1869 -5.89694 -12.4762
3146 1 20.2062 -2.95304 -12.4881
3506 1 18.3256 -4.43252 -14.1402
2066 1 -22.2481 -4.0688e-10 -11.1241
2878 1 -24.7295 7.33965e-11 -12.3648
2953 1 -22.3908 2.55798e-10 -13.9398
1483 1 -17.3577 -8.19846e-11 -11.4567
2132 1 -17.4479 1.88797e-10 -14.293
2133 1 -19.878 3.84474e-10 -12.7134
1482 1 -14.9297 1.9329e-10 -13.037
982 1 -12.4187 1.55917e-11 -11.7752
1481 1 -12.4675 2.37778e-11 -14.6027
981 1 -9.95602 1.11008e-10 -13.3323
351 1 -4.95194 7.85502e-11 -10.7695
610 1 -4.96767 -1.93818e-10 -13.5688
611 1 -7.45038 -1.42078e-10 -12.055
980 1 -7.47233 1.72433e-10 -14.8673
350 1 -2.47235 1.6771e-10 -12.2506
321 1 -9.82846e-12 -2.75599e-11 -13.667
159 1 3.81011e-10 1.06934e-09 -10.8883
342 1 2.00017 1.45321 -12.2506
358 1 2.00017 -1.45321 -12.2506
476 1 4.04499 6.44935e-10 -10.8222
778 1 4.05951 -8.95743e-11 -13.6204
787 1 6.09001 -1.4657 -12.1376
788 1 6.09001 1.4657 -12.1376
1219 1 8.15997 2.34203e-10 -13.468
1238 1 10.1763 -1.46492 -11.9277
1239 1 10.1763 1.46492 -11.9277
1790 1 10.2236 -1.471 -14.7818
1791 1 10.2236 1.471 -14.7818
1815 1 12.2482 3.59613e-12 -13.2351
1844 1 14.2284 -1.46541 -11.6336
1845 1 14.2284 1.46541 -11.6336
2551 1 14.3155 -1.47335 -14.5296
2552 1 14.3155 1.47335 -14.5296
2586 1 16.2969 1.4412e-10 -12.9188
2305 1 18.1961 -1.47047 -11.2458
2306 1 18.1961 1.47047 -11.2458
3147 1 20.2123 -9.341e-11 -12.4919
3507 1 18.3472 -1.47903 -14.1557
3508 1 18.3472 1.47903 -14.1557
3123 1 -21.4892 4.70829 -12.455
3124 1 -23.1494 2.3345 -12.4228
2285 1 -20.6448 2.36006 -11.1798
3487 1 -20.7819 2.37812 -14.0505
2284 1 -18.9871 4.73733 -11.2145
2568 1 -18.2559 2.39784 -12.8179
3486 1 -19.1231 4.78094 -14.107
2567 1 -16.595 4.79798 -12.8765
1802 1 -13.2942 2.41026 -13.1563
1828 1 -14.0682 4.79225 -11.6084
1829 1 -15.7313 2.39687 -11.5541
2535 1 -14.1506 4.82282 -14.4969
2536 1 -15.8199 2.41245 -14.4267
1227 1 -9.09382 4.79631 -11.9277
1228 1 -10.7777 2.40311 -11.8824
1779 1 -9.13567 4.8192 -14.7818
1780 1 -10.8252 2.4158 -14.7281
1801 1 -11.6191 4.8131 -13.2162
1211 1 -8.3049 2.40607 -13.4376
782 1 -5.78844 2.39384 -12.1376
1210 1 -6.60156 4.79631 -13.468
346 1 -0.763998 2.35135 -12.2506
347 1 -1.53023 4.70957 -10.7695
473 1 -3.27246 2.37758 -10.8222
605 1 -1.53509 4.72453 -13.5688
775 1 -3.28421 2.38612 -13.6204
781 1 -4.0654 4.7654 -12.1376
343 1 4.0062 2.91068 -10.7695
472 1 1.24997 3.84701 -10.8222
600 1 4.01893 2.91992 -13.5688
774 1 1.25446 3.86082 -13.6204
779 1 3.27588 5.33902 -12.1376
780 1 0.48795 6.24487 -12.1376
601 1 6.02748 4.37922 -12.055
968 1 6.04524 4.39213 -14.8673
969 1 8.05459 5.852 -13.3323
1220 1 8.13306 2.93495 -13.4376
1240 1 10.1319 4.39082 -11.8824
1792 1 10.1777 4.40844 -14.7281
1816 1 12.2292 2.93568 -13.2162
1817 1 12.172 5.86419 -13.1563
1846 1 14.1982 4.39204 -11.6084
2553 1 14.2829 4.41577 -14.4969
2587 1 16.2843 2.94048 -12.9086
2588 1 16.2458 5.87265 -12.8765
2307 1 18.1799 4.40648 -11.2358
3148 1 20.2062 2.95304 -12.4881
3149 1 20.1869 5.89694 -12.4762
3509 1 18.3256 4.43252 -14.1402
2283 1 -17.2979 7.12094 -11.2358
3121 1 -18.0829 9.48782 -12.4881
3122 1 -19.7977 7.09486 -12.4762
3485 1 -17.4311 7.18556 -14.1402
2282 1 -15.5853 9.50578 -11.2458
2565 1 -13.1845 9.57907 -12.9188
2566 1 -14.9027 7.19281 -12.9086
3484 1 -15.7126 9.58768 -14.1557
1827 1 -12.3724 7.17773 -11.6336
2534 1 -12.4475 7.22245 -14.5296
1800 1 -9.90902 7.19932 -13.2351
1826 1 -10.6497 9.54881 -11.6336
2533 1 -10.7154 9.60637 -14.5296
1209 1 -4.85466 7.15491 -13.4376
1225 1 -5.61599 9.5076 -11.8824
1226 1 -7.37171 7.1666 -11.9277
1777 1 -5.64272 9.54881 -14.7281
1778 1 -7.40641 7.19932 -14.7818
1799 1 -8.16805 9.56314 -13.2162
606 1 -2.30229 7.08573 -12.055
974 1 -2.30908 7.10661 -14.8673
975 1 -3.07658 9.46874 -13.3323
1208 1 -0.278048 8.64195 -13.4376
1207 1 2.52157 7.7606 -13.468
1223 1 1.75142 10.1309 -11.9277
1775 1 1.76026 10.1778 -14.7818
1206 1 5.30455 6.82805 -13.4376
1221 1 7.30683 8.27913 -11.8824
1222 1 4.53786 9.22551 -11.9277
1773 1 7.33776 8.31729 -14.7281
1774 1 4.55825 9.26863 -14.7818
1794 1 6.57102 10.7234 -13.2162
970 1 10.0469 7.2995 -11.7752
1467 1 10.0864 7.32821 -14.6027
1468 1 12.0784 8.77546 -13.037
1793 1 9.33852 9.76408 -13.1563
1469 1 14.0427 10.2026 -11.4567
1847 1 14.1357 7.30752 -11.5541
2116 1 14.1156 10.2556 -14.293
2554 1 14.2166 7.34699 -14.4267
2589 1 16.1787 8.79065 -12.8179
2308 1 18.1454 7.32778 -11.2145
2309 1 18.0892 10.2254 -11.1798
3150 1 20.1526 8.82197 -12.455
3510 1 18.281 7.37239 -14.107
3511 1 18.2107 10.2913 -14.0505
2281 1 -13.8567 11.8851 -11.2458
3119 1 -14.6114 14.2659 -12.4881
3120 1 -16.3521 11.8805 -12.4919
3483 1 -13.9739 11.9808 -14.1557
1825 1 -8.905 11.8987 -11.6084
2280 1 -12.1178 14.2508 -11.2358
2532 1 -8.95955 11.9677 -14.4969
2563 1 -9.69128 14.3001 -12.8765
2564 1 -11.4459 11.9506 -12.9086
3482 1 -12.2204 14.3575 -14.1402
1475 1 -4.61353 14.199 -13.037
1798 1 -6.40043 11.8987 -13.1563
1824 1 -7.14079 14.2207 -11.5541
2531 1 -7.18299 14.3001 -14.4267
976 1 -3.83758 11.8108 -11.7752
1224 1 -1.045 10.9928 -11.8824
1474 1 -3.85267 11.8573 -14.6027
1776 1 -1.04759 11.0419 -14.7281
1797 1 -1.81584 13.3883 -13.1563
1795 1 3.78491 11.6487 -13.2351
1796 1 0.987019 12.5378 -13.2162
1821 1 3.00315 13.9849 -11.6336
1822 1 0.2104 14.8605 -11.6084
2528 1 3.02248 14.0701 -14.5296
2529 1 0.213999 14.9484 -14.4969
1820 1 5.79052 13.0792 -11.6336
2527 1 5.82495 13.1595 -14.5296
2557 1 7.8287 14.5787 -12.9086
1818 1 11.318 11.1857 -11.5541
1819 1 8.56456 12.1461 -11.6084
2525 1 11.3806 11.2504 -14.4267
2526 1 8.6133 12.2193 -14.4969
2556 1 10.6055 13.6359 -12.8765
2117 1 16.0816 11.684 -12.7134
2270 1 15.3148 14.0441 -11.1798
2271 1 12.5764 14.9929 -11.2145
2555 1 13.3599 12.6704 -12.8179
3472 1 15.4151 14.1392 -14.0505
3473 1 12.6607 15.1081 -14.107
2064 1 17.9991 13.0771 -11.1241
2876 1 20.0066 14.5357 -12.3648
2935 1 18.1146 13.161 -13.9398
3151 1 20.1004 11.7182 -12.4228
3118 1 -12.8654 16.6363 -12.4762
2278 1 -8.62415 18.9051 -11.1798
2279 1 -10.3728 16.5939 -11.2145
3117 1 -11.1184 18.9825 -12.455
3480 1 -8.68368 19.0299 -14.0505
3481 1 -10.4563 16.7097 -14.107
1476 1 -5.36382 16.5081 -11.4567
2124 1 -5.39169 16.5939 -14.293
2125 1 -6.14264 18.9051 -12.7134
2562 1 -7.92187 16.6214 -12.8179
1823 1 -2.58168 15.702 -11.5541
2530 1 -2.59424 15.7911 -14.4267
2560 1 -0.564987 17.2654 -12.8765
2561 1 -3.3609 18.1034 -12.8179
2275 1 1.42708 18.6518 -11.2358
2559 1 2.23558 16.396 -12.9086
3477 1 1.44736 18.7984 -14.1402
2273 1 7.02142 16.8511 -11.2458
2274 1 4.22441 17.76 -11.2458
2558 1 5.03601 15.4993 -12.9188
3111 1 6.24594 19.223 -12.4919
3475 1 7.07625 16.9922 -14.1557
3476 1 4.26297 17.9063 -14.1557
2272 1 9.8087 15.9284 -11.2358
3109 1 11.8464 17.3767 -12.4762
3110 1 9.05255 18.3047 -12.4881
3474 1 9.87852 16.059 -14.1402
3108 1 14.6177 16.4401 -12.455
3107 1 17.356 15.4955 -12.4228
3116 1 -9.37379 21.2949 -12.4228
2065 1 -6.87505 21.1592 -11.1241
2877 1 -7.64185 23.5192 -12.3648
2944 1 -6.91915 21.2949 -13.9398
3115 1 -4.9333 22.7377 -12.4228
2277 1 -4.13506 20.3637 -11.1798
3479 1 -4.16023 20.4996 -14.0505
2276 1 -1.36188 19.5217 -11.2145
3114 1 -2.16269 21.8924 -12.455
3478 1 -1.3624 19.6645 -14.107
3112 1 3.43553 20.1297 -12.4881
3113 1 0.629784 21.0212 -12.4762
2997 1 -10.1729 -21.8924 -7.50444
2998 1 -8.90499 -22.7378 -9.96812
3715 1 -10.7066 -20.4996 -10.0046
3744 1 -12.0084 -19.6645 -7.52744
2173 1 -8.15022 -20.3637 -8.69827
2221 1 -5.37581 -21.2652 -8.69827
3051 1 -4.63799 -23.6908 -7.50444
3052 1 -6.16062 -23.6295 -9.96812
3654 1 -7.43343 -22.8777 -7.50411
2751 1 -2.58179 -20.5012 -8.73841
3716 1 -3.38753 -22.8777 -10.0046
3717 1 -0.586097 -22.0537 -10.0422
3745 1 -1.8435 -22.9673 -7.52744
2752 1 0.218863 -19.6779 -8.77218
3718 1 2.22521 -21.1924 -10.0673
3746 1 0.976279 -22.1543 -7.55988
3747 1 3.80198 -21.2933 -7.58105
3719 1 5.04142 -20.3021 -10.0797
3748 1 6.6263 -20.3937 -7.58817
3749 1 9.44 -19.4614 -7.58105
3713 1 -14.2568 -15.8371 -10.0673
3743 1 -13.8118 -17.3493 -7.55988
3714 1 -12.4887 -18.1863 -10.0422
1970 1 -9.17969 -15.702 -7.47626
2749 1 -11.7434 -15.7911 -8.77218
2750 1 -9.9616 -18.1034 -8.73841
933 1 -5.32212 -16.3798 -8.61138
1425 1 -6.09813 -18.7681 -9.867
1518 1 -7.37385 -17.9685 -7.43658
1560 1 -4.59605 -18.8711 -7.43658
1623 1 -7.84836 -16.5081 -9.92112
1104 1 -2.57949 -15.5795 -8.66474
1624 1 -3.35378 -17.9685 -9.92112
1625 1 -0.581526 -17.1284 -9.95677
1971 1 -1.8029 -18.0989 -7.47626
1626 1 2.20319 -16.2571 -9.97647
1972 1 0.993542 -17.2708 -7.50781
1973 1 3.78809 -16.4007 -7.5236
2753 1 3.02174 -18.8155 -8.79225
1627 1 4.99139 -15.3619 -9.98278
1974 1 6.57546 -15.495 -7.5236
2754 1 5.82284 -17.9209 -8.79891
3720 1 7.8547 -19.388 -10.0797
2755 1 8.61486 -16.9982 -8.79225
2756 1 11.3893 -16.0484 -8.77218
3721 1 10.6564 -18.453 -10.0673
3750 1 12.2321 -18.497 -7.55988
3722 1 13.437 -17.4973 -10.0422
3723 1 16.1878 -16.5173 -10.0046
3751 1 14.9913 -17.4973 -7.52744
3006 1 17.6773 -16.4401 -7.50444
3007 1 18.8731 -15.4955 -9.96812
3711 1 -17.7506 -11.0684 -10.0797
3741 1 -17.3479 -12.604 -7.58817
1968 1 -12.7047 -11.0419 -7.5236
2747 1 -15.2444 -11.0757 -8.79891
2748 1 -13.5041 -13.446 -8.79225
3712 1 -16.0119 -13.4615 -10.0797
3742 1 -15.5917 -14.9919 -7.58105
1102 1 -8.81588 -11.8108 -8.69848
1621 1 -11.3381 -11.8573 -9.97647
1622 1 -9.59737 -14.199 -9.95677
1969 1 -10.9553 -13.3884 -7.50781
571 1 -4.5485 -13.9988 -7.35963
713 1 -6.29339 -11.7407 -7.41175
989 1 -4.58794 -14.1202 -10.1991
1103 1 -7.07053 -14.1202 -8.66474
1255 1 -6.36001 -11.832 -10.2907
618 1 -3.81479 -11.7407 -8.94361
714 1 -1.80956 -13.1976 -7.41175
816 1 -1.0414 -10.9267 -9.02873
1256 1 -1.80932 -13.3106 -10.2907
715 1 0.955129 -12.3493 -7.44116
716 1 3.72519 -11.465 -7.45037
1105 1 0.189955 -14.737 -8.69848
1106 1 2.96866 -13.8609 -8.71417
1257 1 0.977902 -12.4625 -10.3371
1258 1 3.76156 -11.5769 -10.3516
1107 1 5.74552 -12.9586 -8.71417
1628 1 7.77329 -14.4473 -9.97647
1108 1 8.50853 -12.0342 -8.69848
1109 1 11.2442 -11.0879 -8.66474
1629 1 10.5383 -13.5154 -9.95677
1975 1 9.34771 -14.5563 -7.50781
1976 1 12.0968 -13.5826 -7.47626
1426 1 15.9651 -11.5993 -9.867
1525 1 14.8104 -12.5655 -7.43658
1630 1 13.2749 -12.5655 -9.92112
2757 1 14.139 -15.0683 -8.73841
2181 1 16.8485 -14.0441 -8.69827
2229 1 18.5632 -11.684 -8.69827
3061 1 20.5692 -13.161 -9.96812
3655 1 19.461 -14.1392 -7.50411
3060 1 21.0981 -11.7319 -7.50444
3739 1 -20.7683 -7.77454 -7.55988
2746 1 -16.9609 -8.68817 -8.79225
3710 1 -19.4676 -8.66513 -10.0673
3740 1 -19.0762 -10.1959 -7.58105
1619 1 -14.7806 -7.11908 -9.97647
1620 1 -13.0676 -9.49419 -9.98278
1967 1 -14.4274 -8.67078 -7.5236
711 1 -9.75268 -7.08573 -7.45037
1100 1 -12.2651 -7.10661 -8.71417
1101 1 -10.5489 -9.46874 -8.71417
1253 1 -9.8479 -7.15492 -10.3516
495 1 -4.80016 -7.07934 -7.76681
712 1 -8.03147 -9.42941 -7.44116
797 1 -4.8315 -7.12318 -10.6054
814 1 -7.3251 -7.12318 -9.06432