 #    0.00000000
 
        3871  atoms
           1  atom types
 
      -19.538200000000      24.150500000000  xlo xhi
      -22.968500000000      22.968500000000  ylo yhi
      -27.000000000000      27.000000000000  zlo zhi
 
Masses
 
            1   107.86820000            # Ag
 
Atoms # atomic
 
         1    1        0.000000000000       0.000000000000       0.000000000000
         2    1        0.000000000000       0.000000000000       2.700000047684
         3    1        2.415049364260       0.000000000000       1.207284898307
         4    1        0.746291295811       2.296848435054       1.207284898307
         5    1       -1.953815977940       1.419530399870       1.207284898307
         6    1       -1.953815977940      -1.419530399870       1.207284898307
         7    1        0.746291295811      -2.296848435054       1.207284898307
         8    1        2.415049364260      -0.000000000000      -1.207284898307
         9    1        0.746291295811       2.296848435054      -1.207284898307
        10    1       -1.953815977940       1.419530399870      -1.207284898307
        11    1       -1.953815977940      -1.419530399870      -1.207284898307
        12    1        0.746291295811      -2.296848435054      -1.207284898307
        13    1        0.000000000000       0.000000000000      -2.700000047684
        14    1        0.000000000000       0.000000000000       5.400000095367
        15    1        4.830098728519       0.000000000000       2.414569796615
        16    1        1.492582591621       4.593696870107       2.414569796615
        17    1       -3.907631955881       2.839060799740       2.414569796615
        18    1       -3.907631955881      -2.839060799740       2.414569796615
        19    1        1.492582591621      -4.593696870107       2.414569796615
        20    1        4.830098728519      -0.000000000000      -2.414569796615
        21    1        1.492582591621       4.593696870107      -2.414569796615
        22    1       -3.907631955881       2.839060799740      -2.414569796615
        23    1       -3.907631955881      -2.839060799740      -2.414569796615
        24    1        1.492582591621      -4.593696870107      -2.414569796615
        25    1        0.000000000000       0.000000000000      -5.400000095367
        26    1        2.415049364260       0.000000000000       3.907284945991
        27    1        3.161340660070       2.296848435054       2.414569796615
        28    1        0.746291295811       2.296848435054       3.907284945991
        29    1       -1.207524682130       3.716378834924       2.414569796615
        30    1       -1.953815977940       1.419530399870       3.907284945991
        31    1       -3.907631955881       0.000000000000       2.414569796615
        32    1       -1.953815977940      -1.419530399870       3.907284945991
        33    1       -1.207524682130      -3.716378834924       2.414569796615
        34    1        0.746291295811      -2.296848435054       3.907284945991
        35    1        3.161340660070      -2.296848435054       2.414569796615
        36    1        2.415049364260      -0.000000000000      -3.907284945991
        37    1        3.161340660070       2.296848435054      -2.414569796615
        38    1        0.746291295811       2.296848435054      -3.907284945991
        39    1       -1.207524682130       3.716378834924      -2.414569796615
        40    1       -1.953815977940       1.419530399870      -3.907284945991
        41    1       -3.907631955881       0.000000000000      -2.414569796615
        42    1       -1.953815977940      -1.419530399870      -3.907284945991
        43    1       -1.207524682130      -3.716378834924      -2.414569796615
        44    1        0.746291295811      -2.296848435054      -3.907284945991
        45    1        3.161340660070      -2.296848435054      -2.414569796615
        46    1        4.830098728519      -0.000000000000       0.000000000000
        47    1        1.492582591621       4.593696870107       0.000000000000
        48    1       -3.907631955881       2.839060799740       0.000000000000
        49    1       -3.907631955881      -2.839060799740       0.000000000000
        50    1        1.492582591621      -4.593696870107       0.000000000000
        51    1        3.161340660070       2.296848435054       0.000000000000
        52    1        3.161340579752      -2.296848545603       0.000000000000
        53    1       -1.207524942047      -3.716378750472       0.000000000000
        54    1       -3.907631955881       0.000000409939       0.000000000000
        55    1       -1.207524162296       3.716379003828       0.000000000000
        56    1        0.000000000000       0.000000000000       8.100000143051
        57    1        7.245148092779       0.000000000000       3.621854694922
        58    1        2.238873887432       6.890545305161       3.621854694922
        59    1       -5.861447933821       4.258591199610       3.621854694922
        60    1       -5.861447933821      -4.258591199610       3.621854694922
        61    1        2.238873887432      -6.890545305161       3.621854694922
        62    1        7.245148092779      -0.000000000000      -3.621854694922
        63    1        2.238873887432       6.890545305161      -3.621854694922
        64    1       -5.861447933821       4.258591199610      -3.621854694922
        65    1       -5.861447933821      -4.258591199610      -3.621854694922
        66    1        2.238873887432      -6.890545305161      -3.621854694922
        67    1        0.000000000000       0.000000000000      -8.100000143051
        68    1        2.415049364260       0.000000000000       6.607284993675
        69    1        5.576390024330       2.296848435054       3.621854694922
        70    1        4.830098728519       0.000000000000       5.114569844299
        71    1        3.907631955881       4.593696870107       3.621854694922
        72    1        0.746291295811       2.296848435054       6.607284993675
        73    1       -0.461233386319       6.013227269977       3.621854694922
        74    1        1.492582591621       4.593696870107       5.114569844299
        75    1       -3.161340660070       5.135909234794       3.621854694922
        76    1       -1.953815977940       1.419530399870       6.607284993675
        77    1       -5.861447933821       1.419530399870       3.621854694922
        78    1       -3.907631955881       2.839060799740       5.114569844299
        79    1       -5.861447933821      -1.419530399870       3.621854694922
        80    1       -1.953815977940      -1.419530399870       6.607284993675
        81    1       -3.161340660070      -5.135909234794       3.621854694922
        82    1       -3.907631955881      -2.839060799740       5.114569844299
        83    1       -0.461233386319      -6.013227269977       3.621854694922
        84    1        0.746291295811      -2.296848435054       6.607284993675
        85    1        3.907631955881      -4.593696870107       3.621854694922
        86    1        1.492582591621      -4.593696870107       5.114569844299
        87    1        5.576390024330      -2.296848435054       3.621854694922
        88    1        2.415049364260      -0.000000000000      -6.607284993675
        89    1        5.576390024330       2.296848435054      -3.621854694922
        90    1        4.830098728519      -0.000000000000      -5.114569844299
        91    1        3.907631955881       4.593696870107      -3.621854694922
        92    1        0.746291295811       2.296848435054      -6.607284993675
        93    1       -0.461233386319       6.013227269977      -3.621854694922
        94    1        1.492582591621       4.593696870107      -5.114569844299
        95    1       -3.161340660070       5.135909234794      -3.621854694922
        96    1       -1.953815977940       1.419530399870      -6.607284993675
        97    1       -5.861447933821       1.419530399870      -3.621854694922
        98    1       -3.907631955881       2.839060799740      -5.114569844299
        99    1       -5.861447933821      -1.419530399870      -3.621854694922
       100    1       -1.953815977940      -1.419530399870      -6.607284993675
       101    1       -3.161340660070      -5.135909234794      -3.621854694922
       102    1       -3.907631955881      -2.839060799740      -5.114569844299
       103    1       -0.461233386319      -6.013227269977      -3.621854694922
       104    1        0.746291295811      -2.296848435054      -6.607284993675
       105    1        3.907631955881      -4.593696870107      -3.621854694922
       106    1        1.492582591621      -4.593696870107      -5.114569844299
       107    1        5.576390024330      -2.296848435054      -3.621854694922
       108    1        7.245148092779      -0.000000000000       1.207284898307
       109    1        7.245148092779      -0.000000000000      -1.207284898307
       110    1        2.238873887432       6.890545305161       1.207284898307
       111    1        2.238873887432       6.890545305161      -1.207284898307
       112    1       -5.861447933821       4.258591199610       1.207284898307
       113    1       -5.861447933821       4.258591199610      -1.207284898307
       114    1       -5.861447933821      -4.258591199610       1.207284898307
       115    1       -5.861447933821      -4.258591199610      -1.207284898307
       116    1        2.238873887432      -6.890545305161       1.207284898307
       117    1        2.238873887432      -6.890545305161      -1.207284898307
       118    1        5.576390024330       2.296848435054       1.207284898307
       119    1        5.576390024330       2.296848435054      -1.207284898307
       120    1        3.907631955881       4.593696870107       1.207284898307
       121    1        3.907631955881       4.593696870107      -1.207284898307
       122    1        3.907631795243      -4.593697006754       1.207284898307
       123    1        3.907631795243      -4.593697006754      -1.207284898307
       124    1        5.576389944011      -2.296848630055       1.207284898307
       125    1        5.576389944011      -2.296848630055      -1.207284898307
       126    1       -3.161341019267      -5.135909013695       1.207284898307
       127    1       -3.161341019267      -5.135909013695      -1.207284898307
       128    1       -0.461233806874      -6.013227237719       1.207284898307
       129    1       -0.461233806874      -6.013227237719      -1.207284898307
       130    1       -5.861447784902       1.419531014779       1.207284898307
       131    1       -5.861447784902       1.419531014779      -1.207284898307
       132    1       -5.861448082740      -1.419529784961       1.207284898307
       133    1       -5.861448082740      -1.419529784961      -1.207284898307
       134    1       -0.461232545210       6.013227334493       1.207284898307
       135    1       -0.461232545210       6.013227334493      -1.207284898307
       136    1       -3.161339941677       5.135909676991       1.207284898307
       137    1       -3.161339941677       5.135909676991      -1.207284898307
       138    1        3.161340660070       2.296848435054       5.114569844299
       139    1        3.161340579752      -2.296848545603       5.114569844299
       140    1       -1.207524942047      -3.716378750472       5.114569844299
       141    1       -3.907631955881       0.000000409939       5.114569844299
       142    1       -1.207524162296       3.716379003828       5.114569844299
       143    1        3.161340660070       2.296848435054      -5.114569844299
       144    1        3.161340579752      -2.296848545603      -5.114569844299
       145    1       -1.207524942047      -3.716378750472      -5.114569844299
       146    1       -3.907631955881       0.000000409939      -5.114569844299
       147    1       -1.207524162296       3.716379003828      -5.114569844299
       148    1        0.000000000000       0.000000000000      10.800000190735
       149    1        9.660197457038       0.000000000000       4.829139593230
       150    1        2.985165183243       9.187393740214       4.829139593230
       151    1       -7.815263911762       5.678121599480       4.829139593230
       152    1       -7.815263911762      -5.678121599480       4.829139593230
       153    1        2.985165183243      -9.187393740214       4.829139593230
       154    1        9.660197457038      -0.000000000000      -4.829139593230
       155    1        2.985165183243       9.187393740214      -4.829139593230
       156    1       -7.815263911762       5.678121599480      -4.829139593230
       157    1       -7.815263911762      -5.678121599480      -4.829139593230
       158    1        2.985165183243      -9.187393740214      -4.829139593230
       159    1        0.000000000000       0.000000000000     -10.800000190735
       160    1        2.415049364260       0.000000000000       9.307285041359
       161    1        7.991439388589       2.296848435054       4.829139593230
       162    1        4.830098728519       0.000000000000       7.814569891982
       163    1        6.322681320141       4.593696870107       4.829139593230
       164    1        7.245148092779       0.000000000000       6.321854742606
       165    1        4.653923251692       6.890545305161       4.829139593230
       166    1        0.746291295811       2.296848435054       9.307285041359
       167    1        0.285057909491       8.310075705031       4.829139593230
       168    1        1.492582591621       4.593696870107       7.814569891982
       169    1       -2.415049364260       7.432757669847       4.829139593230
       170    1        2.238873887432       6.890545305161       6.321854742606
       171    1       -5.115156638011       6.555439634664       4.829139593230
       172    1       -1.953815977940       1.419530399870       9.307285041359
       173    1       -7.815263911762       2.839060799740       4.829139593230
       174    1       -3.907631955881       2.839060799740       7.814569891982
       175    1       -7.815263911762       0.000000000000       4.829139593230
       176    1       -5.861447933821       4.258591199610       6.321854742606
       177    1       -7.815263911762      -2.839060799740       4.829139593230
       178    1       -1.953815977940      -1.419530399870       9.307285041359
       179    1       -5.115156638011      -6.555439634664       4.829139593230
       180    1       -3.907631955881      -2.839060799740       7.814569891982
       181    1       -2.415049364260      -7.432757669847       4.829139593230
       182    1       -5.861447933821      -4.258591199610       6.321854742606
       183    1        0.285057909491      -8.310075705031       4.829139593230
       184    1        0.746291295811      -2.296848435054       9.307285041359
       185    1        4.653923251692      -6.890545305161       4.829139593230
       186    1        1.492582591621      -4.593696870107       7.814569891982
       187    1        6.322681320141      -4.593696870107       4.829139593230
       188    1        2.238873887432      -6.890545305161       6.321854742606
       189    1        7.991439388589      -2.296848435054       4.829139593230
       190    1        2.415049364260      -0.000000000000      -9.307285041359
       191    1        7.991439388589       2.296848435054      -4.829139593230
       192    1        4.830098728519      -0.000000000000      -7.814569891982
       193    1        6.322681320141       4.593696870107      -4.829139593230
       194    1        7.245148092779      -0.000000000000      -6.321854742606
       195    1        4.653923251692       6.890545305161      -4.829139593230
       196    1        0.746291295811       2.296848435054      -9.307285041359
       197    1        0.285057909491       8.310075705031      -4.829139593230
       198    1        1.492582591621       4.593696870107      -7.814569891982
       199    1       -2.415049364260       7.432757669847      -4.829139593230
       200    1        2.238873887432       6.890545305161      -6.321854742606
       201    1       -5.115156638011       6.555439634664      -4.829139593230
       202    1       -1.953815977940       1.419530399870      -9.307285041359
       203    1       -7.815263911762       2.839060799740      -4.829139593230
       204    1       -3.907631955881       2.839060799740      -7.814569891982
       205    1       -7.815263911762       0.000000000000      -4.829139593230
       206    1       -5.861447933821       4.258591199610      -6.321854742606
       207    1       -7.815263911762      -2.839060799740      -4.829139593230
       208    1       -1.953815977940      -1.419530399870      -9.307285041359
       209    1       -5.115156638011      -6.555439634664      -4.829139593230
       210    1       -3.907631955881      -2.839060799740      -7.814569891982
       211    1       -2.415049364260      -7.432757669847      -4.829139593230
       212    1       -5.861447933821      -4.258591199610      -6.321854742606
       213    1        0.285057909491      -8.310075705031      -4.829139593230
       214    1        0.746291295811      -2.296848435054      -9.307285041359
       215    1        4.653923251692      -6.890545305161      -4.829139593230
       216    1        1.492582591621      -4.593696870107      -7.814569891982
       217    1        6.322681320141      -4.593696870107      -4.829139593230
       218    1        2.238873887432      -6.890545305161      -6.321854742606
       219    1        7.991439388589      -2.296848435054      -4.829139593230
       220    1        9.660197457038      -0.000000000000       2.414569796615
       221    1        9.660197457038      -0.000000000000       0.000000000000
       222    1        9.660197457038      -0.000000000000      -2.414569796615
       223    1        2.985165183243       9.187393740214       2.414569796615
       224    1        2.985165183243       9.187393740214       0.000000000000
       225    1        2.985165183243       9.187393740214      -2.414569796615
       226    1       -7.815263911762       5.678121599480       2.414569796615
       227    1       -7.815263911762       5.678121599480       0.000000000000
       228    1       -7.815263911762       5.678121599480      -2.414569796615
       229    1       -7.815263911762      -5.678121599480       2.414569796615
       230    1       -7.815263911762      -5.678121599480       0.000000000000
       231    1       -7.815263911762      -5.678121599480      -2.414569796615
       232    1        2.985165183243      -9.187393740214       2.414569796615
       233    1        2.985165183243      -9.187393740214       0.000000000000
       234    1        2.985165183243      -9.187393740214      -2.414569796615
       235    1        7.991439388589       2.296848435054       2.414569796615
       236    1        7.991439388589       2.296848435054       0.000000000000
       237    1        7.991439388589       2.296848435054      -2.414569796615
       238    1        6.322681320141       4.593696870107       2.414569796615
       239    1        6.322681320141       4.593696870107       0.000000000000
       240    1        6.322681320141       4.593696870107      -2.414569796615
       241    1        4.653923251692       6.890545305161       2.414569796615
       242    1        4.653923251692       6.890545305161       0.000000000000
       243    1        4.653923251692       6.890545305161      -2.414569796615
       244    1        4.653923010735      -6.890545467904       2.414569796615
       245    1        4.653923010735      -6.890545467904       0.000000000000
       246    1        4.653923010735      -6.890545467904      -2.414569796615
       247    1        6.322681159503      -4.593697091206       2.414569796615
       248    1        6.322681159503      -4.593697091206       0.000000000000
       249    1        6.322681159503      -4.593697091206      -2.414569796615
       250    1        7.991439308271      -2.296848714507       2.414569796615
       251    1        7.991439308271      -2.296848714507       0.000000000000
       252    1        7.991439308271      -2.296848714507      -2.414569796615
       253    1       -5.115157096486      -6.555439276919       2.414569796615
       254    1       -5.115157096486      -6.555439276919       0.000000000000
       255    1       -5.115157096486      -6.555439276919      -2.414569796615
       256    1       -2.415049884093      -7.432757500943       2.414569796615
       257    1       -2.415049884093      -7.432757500943       0.000000000000
       258    1       -2.415049884093      -7.432757500943      -2.414569796615
       259    1        0.285057328300      -8.310075724967       2.414569796615
       260    1        0.285057328300      -8.310075724967       0.000000000000
       261    1        0.285057328300      -8.310075724967      -2.414569796615
       262    1       -7.815263613923       2.839061619619       2.414569796615
       263    1       -7.815263613923       2.839061619619       0.000000000000
       264    1       -7.815263613923       2.839061619619      -2.414569796615
       265    1       -7.815263911762       0.000000819879       2.414569796615
       266    1       -7.815263911762       0.000000819879       0.000000000000
       267    1       -7.815263911762       0.000000819879      -2.414569796615
       268    1       -7.815264209600      -2.839059979862       2.414569796615
       269    1       -7.815264209600      -2.839059979862       0.000000000000
       270    1       -7.815264209600      -2.839059979862      -2.414569796615
       271    1        0.285059071875       8.310075665158       2.414569796615
       272    1        0.285059071875       8.310075665158       0.000000000000
       273    1        0.285059071875       8.310075665158      -2.414569796615
       274    1       -2.415048324592       7.432758007656       2.414569796615
       275    1       -2.415048324592       7.432758007656       0.000000000000
       276    1       -2.415048324592       7.432758007656      -2.414569796615
       277    1       -5.115155721059       6.555440350154       2.414569796615
       278    1       -5.115155721059       6.555440350154       0.000000000000
       279    1       -5.115155721059       6.555440350154      -2.414569796615
       280    1        3.161340660070       2.296848435054       7.814569891982
       281    1        5.576390024330       2.296848435054       6.321854742606
       282    1        3.907631955881       4.593696870107       6.321854742606
       283    1        3.161340579752      -2.296848545603       7.814569891982
       284    1        3.907631795243      -4.593697006754       6.321854742606
       285    1        5.576389944011      -2.296848630055       6.321854742606
       286    1       -1.207524942047      -3.716378750472       7.814569891982
       287    1       -3.161341019267      -5.135909013695       6.321854742606
       288    1       -0.461233806874      -6.013227237719       6.321854742606
       289    1       -3.907631955881       0.000000409939       7.814569891982
       290    1       -5.861447784902       1.419531014779       6.321854742606
       291    1       -5.861448082740      -1.419529784961       6.321854742606
       292    1       -1.207524162296       3.716379003828       7.814569891982
       293    1       -0.461232545210       6.013227334493       6.321854742606
       294    1       -3.161339941677       5.135909676991       6.321854742606
       295    1        3.161340660070       2.296848435054      -7.814569891982
       296    1        5.576390024330       2.296848435054      -6.321854742606
       297    1        3.907631955881       4.593696870107      -6.321854742606
       298    1        3.161340579752      -2.296848545603      -7.814569891982
       299    1        3.907631795243      -4.593697006754      -6.321854742606
       300    1        5.576389944011      -2.296848630055      -6.321854742606
       301    1       -1.207524942047      -3.716378750472      -7.814569891982
       302    1       -3.161341019267      -5.135909013695      -6.321854742606
       303    1       -0.461233806874      -6.013227237719      -6.321854742606
       304    1       -3.907631955881       0.000000409939      -7.814569891982
       305    1       -5.861447784902       1.419531014779      -6.321854742606
       306    1       -5.861448082740      -1.419529784961      -6.321854742606
       307    1       -1.207524162296       3.716379003828      -7.814569891982
       308    1       -0.461232545210       6.013227334493      -6.321854742606
       309    1       -3.161339941677       5.135909676991      -6.321854742606
       310    1        0.000000000000       0.000000000000      13.500000238419
       311    1       12.075246821298       0.000000000000       6.036424491537
       312    1        3.731456479053      11.484242175268       6.036424491537
       313    1       -9.769079889702       7.097651999351       6.036424491537
       314    1       -9.769079889702      -7.097651999351       6.036424491537
       315    1        3.731456479053     -11.484242175268       6.036424491537
       316    1       12.075246821298      -0.000000000000      -6.036424491537
       317    1        3.731456479053      11.484242175268      -6.036424491537
       318    1       -9.769079889702       7.097651999351      -6.036424491537
       319    1       -9.769079889702      -7.097651999351      -6.036424491537
       320    1        3.731456479053     -11.484242175268      -6.036424491537
       321    1        0.000000000000       0.000000000000     -13.500000238419
       322    1        2.415049364260       0.000000000000      12.007285089042
       323    1       10.406488752849       2.296848435054       6.036424491537
       324    1        4.830098728519       0.000000000000      10.514569939666
       325    1        8.737730684400       4.593696870107       6.036424491537
       326    1        7.245148092779       0.000000000000       9.021854790290
       327    1        7.068972615951       6.890545305161       6.036424491537
       328    1        9.660197457038       0.000000000000       7.529139640914
       329    1        5.400214547502       9.187393740214       6.036424491537
       330    1        0.746291295811       2.296848435054      12.007285089042
       331    1        1.031349205302      10.606924140084       6.036424491537
       332    1        1.492582591621       4.593696870107      10.514569939666
       333    1       -1.668758068449       9.729606104901       6.036424491537
       334    1        2.238873887432       6.890545305161       9.021854790290
       335    1       -4.368865342200       8.852288069718       6.036424491537
       336    1        2.985165183243       9.187393740214       7.529139640914
       337    1       -7.068972615951       7.974970034534       6.036424491537
       338    1       -1.953815977940       1.419530399870      12.007285089042
       339    1       -9.769079889702       4.258591199610       6.036424491537
       340    1       -3.907631955881       2.839060799740      10.514569939666
       341    1       -9.769079889702       1.419530399870       6.036424491537
       342    1       -5.861447933821       4.258591199610       9.021854790290
       343    1       -9.769079889702      -1.419530399870       6.036424491537
       344    1       -7.815263911762       5.678121599480       7.529139640914
       345    1       -9.769079889702      -4.258591199610       6.036424491537
       346    1       -1.953815977940      -1.419530399870      12.007285089042
       347    1       -7.068972615951      -7.974970034534       6.036424491537
       348    1       -3.907631955881      -2.839060799740      10.514569939666
       349    1       -4.368865342200      -8.852288069718       6.036424491537
       350    1       -5.861447933821      -4.258591199610       9.021854790290
       351    1       -1.668758068449      -9.729606104901       6.036424491537
       352    1       -7.815263911762      -5.678121599480       7.529139640914
       353    1        1.031349205302     -10.606924140084       6.036424491537
       354    1        0.746291295811      -2.296848435054      12.007285089042
       355    1        5.400214547502      -9.187393740214       6.036424491537
       356    1        1.492582591621      -4.593696870107      10.514569939666
       357    1        7.068972615951      -6.890545305161       6.036424491537
       358    1        2.238873887432      -6.890545305161       9.021854790290
       359    1        8.737730684400      -4.593696870107       6.036424491537
       360    1        2.985165183243      -9.187393740214       7.529139640914
       361    1       10.406488752849      -2.296848435054       6.036424491537
       362    1        2.415049364260      -0.000000000000     -12.007285089042
       363    1       10.406488752849       2.296848435054      -6.036424491537
       364    1        4.830098728519      -0.000000000000     -10.514569939666
       365    1        8.737730684400       4.593696870107      -6.036424491537
       366    1        7.245148092779      -0.000000000000      -9.021854790290