ITEM: TIMESTEP
440
ITEM: NUMBER OF ATOMS
3829
ITEM: BOX BOUNDS ss ss ss
-2.0507451492030714e+01 2.0506338130014356e+01
-2.0578009951268740e+01 2.0575549134816384e+01
-2.0332135087469037e+01 2.0331086941708101e+01
ITEM: ATOMS id type x y z
3002 1 -2.00211 -18.148 -20.1232
3003 1 -1.99735 -20.1758 -18.1186
3758 1 -4.04115 -18.2147 -18.16
2022 1 -0.00604445 -18.1504 -18.1026
2834 1 -0.00786174 -20.089 -20.0627
2977 1 1.99025 -20.1727 -18.1269
2999 1 1.98253 -18.1449 -20.132
3750 1 4.03215 -18.2111 -18.1787
3759 1 -6.06514 -16.1915 -18.1647
3008 1 -6.03827 -14.1301 -20.1388
3761 1 -8.08081 -14.1619 -18.1604
2172 1 -2.02857 -16.1614 -18.1432
3005 1 -4.02046 -16.147 -20.1355
3217 1 -0.0121384 -16.1659 -20.2027
2175 1 -4.04291 -14.1472 -18.1551
3208 1 -2.03353 -14.1575 -20.2207
2347 1 -0.0112145 -14.1466 -18.1893
2169 1 2.01241 -16.1599 -18.1528
2996 1 4.00022 -16.1423 -20.1521
2166 1 4.02828 -14.1465 -18.1737
3216 1 2.00749 -14.1558 -20.228
3743 1 6.05943 -16.1905 -18.1945
2993 1 6.02185 -14.1243 -20.1613
3737 1 8.08166 -14.1618 -18.198
3764 1 -10.0954 -12.1344 -18.1546
3768 1 -12.113 -10.1103 -18.1492
3014 1 -10.0705 -10.0828 -20.1323
2178 1 -6.05471 -12.126 -18.1594
3011 1 -8.05482 -12.1074 -20.1377
2181 1 -8.06697 -10.1033 -18.1571
3190 1 -6.07012 -10.1184 -20.2335
2339 1 -2.029 -12.1296 -18.2061
3199 1 -4.05262 -12.1407 -20.2306
3207 1 -0.0148202 -12.1453 -20.2542
2331 1 -4.04302 -10.1093 -18.2156
3198 1 -2.03629 -10.1273 -20.2701
2338 1 -0.0133766 -10.1134 -18.2377
2346 1 2.00574 -12.1299 -18.2148
3215 1 4.029 -12.1382 -20.243
2345 1 4.0233 -10.1087 -18.2311
3206 1 2.00688 -10.1266 -20.2753
2163 1 6.04535 -12.1247 -18.1847
2990 1 8.0441 -12.0992 -20.1646
2160 1 8.06216 -10.098 -18.188
3214 1 6.05057 -10.1144 -20.2513
3732 1 10.1007 -12.1306 -18.1948
2987 1 10.0654 -10.0712 -20.1624
3728 1 12.1185 -10.1014 -18.186
3779 1 -16.1549 -6.06247 -18.1417
3020 1 -14.0961 -6.0328 -20.1142
3773 1 -14.1334 -8.08692 -18.1452
2187 1 -12.0954 -6.06074 -18.1354
3017 1 -12.0847 -8.05783 -20.1237
2184 1 -10.0811 -8.08165 -18.1483
3172 1 -10.1004 -6.06914 -20.2154
2315 1 -8.06975 -6.06597 -18.204
2323 1 -6.05636 -8.08747 -18.2152
3180 1 -6.0759 -6.07841 -20.2718
3181 1 -8.08655 -8.0939 -20.2281
2322 1 -4.0452 -6.07223 -18.253
2330 1 -2.02966 -8.09394 -18.2516
3188 1 -2.0389 -6.08455 -20.3047
3189 1 -4.05673 -8.10399 -20.2766
2329 1 -0.0146684 -6.07523 -18.2757
3197 1 -0.0160475 -8.10811 -20.2955
2336 1 4.02099 -6.06898 -18.2697
2337 1 2.0036 -8.09332 -18.2588
3196 1 2.00539 -6.08378 -20.311
3205 1 4.02911 -8.10209 -20.2878
2343 1 8.05798 -6.05751 -18.236
2344 1 6.04062 -8.08328 -18.2388
3204 1 6.05135 -6.07399 -20.2915
3213 1 8.07167 -8.08705 -20.2524
2157 1 10.0789 -8.0716 -18.1829
3212 1 10.0924 -6.06058 -20.2449
2154 1 12.0961 -6.05006 -18.1687
2984 1 12.0859 -8.04474 -20.1539
2981 1 14.1047 -6.02261 -20.1393
3725 1 14.1379 -8.07749 -18.1729
3723 1 16.1599 -6.05748 -18.1567
3004 1 -20.1323 -1.99239 -18.0863
3026 1 -18.1008 -1.99155 -20.0882
3786 1 -18.1722 -4.03459 -18.1313
2023 1 -18.1055 -0.00260612 -18.0602
2193 1 -16.1169 -2.0225 -18.1035
3023 1 -16.1038 -4.00975 -20.1045
2190 1 -14.1082 -4.04046 -18.1213
3154 1 -14.1165 -2.02202 -20.1808
3145 1 -16.1195 -0.00215262 -20.1583
2291 1 -14.1022 -0.00455495 -18.1388
2299 1 -12.092 -2.02405 -18.1631
3163 1 -12.1102 -4.04486 -20.1987
2307 1 -10.0817 -4.04485 -18.185
3162 1 -10.1024 -2.02804 -20.235
3153 1 -12.1094 -0.00496926 -20.2096
2298 1 -10.0794 -0.00825149 -18.1906
2306 1 -8.07062 -2.02892 -18.2184
2314 1 -6.05941 -4.05032 -18.2408
3170 1 -6.0781 -2.03299 -20.2858
3171 1 -8.09163 -4.05282 -20.2568
2305 1 -6.05893 -0.0118963 -18.2436
3161 1 -8.09034 -0.00849011 -20.2615
2313 1 -4.04782 -2.03292 -18.2671
2321 1 -2.03247 -4.05444 -18.2787
3178 1 -2.04248 -2.03587 -20.32
3179 1 -4.06048 -4.05874 -20.3012
2320 1 -0.0183691 -2.03366 -18.2932
3187 1 -0.0191973 -4.06098 -20.322
2312 1 -2.03496 -0.0131199 -18.2828
3169 1 -4.06152 -0.0106576 -20.3055
3177 1 -0.0227851 -0.0103452 -20.3276
2327 1 4.01853 -2.02902 -18.2894
2328 1 2.00136 -4.05271 -18.2888
3186 1 2.0017 -2.03441 -20.3286
3195 1 4.02746 -4.05605 -20.3164
2319 1 1.99744 -0.0115893 -18.2951
3185 1 4.0237 -0.00795401 -20.3234
2334 1 8.05657 -2.02207 -18.2542
2335 1 6.03883 -4.04372 -18.2687
3194 1 6.05015 -2.02865 -20.3105
3203 1 8.07364 -4.04645 -20.2848
2326 1 6.03599 -0.00829542 -18.2756
3193 1 8.07189 -0.0049 -20.2923
2342 1 10.0754 -4.03589 -18.2214
3202 1 10.0945 -2.02265 -20.267
2341 1 12.0917 -2.0193 -18.1969
3211 1 12.1115 -4.038 -20.2286
2333 1 10.0726 -0.00548765 -18.227
3201 1 12.1118 -0.00317832 -20.2392
2151 1 14.1124 -4.0341 -18.1475
3210 1 14.1271 -2.01937 -20.205
2148 1 16.1247 -2.02144 -18.1193
2978 1 16.1193 -4.00521 -20.1196
2340 1 14.1074 -0.00484506 -18.1657
3209 1 16.1372 -0.00348011 -20.1733
2975 1 18.1212 -1.99225 -20.0913
2976 1 20.1405 -1.99609 -18.0748
3722 1 18.179 -4.03483 -18.1325
2021 1 18.1157 -0.00577867 -18.0638
2833 1 20.0657 -0.00450509 -20.016
2835 1 -20.0422 -0.00014391 -20.0257
3031 1 -20.1296 1.98915 -18.0831
3053 1 -18.0984 1.98901 -20.0849
3822 1 -18.1661 4.02798 -18.1237
2217 1 -16.1138 2.0149 -18.0995
3050 1 -16.0985 4.00295 -20.0981
2214 1 -14.1013 4.02745 -18.1132
3144 1 -14.1133 2.01432 -20.1776
2290 1 -12.088 2.01062 -18.1586
3143 1 -12.1031 4.03149 -20.1922
2289 1 -10.0744 4.02562 -18.1755
3152 1 -10.0984 2.01378 -20.2313
2296 1 -6.05504 4.02612 -18.229
2297 1 -8.06697 2.00798 -18.2129
3151 1 -8.08506 4.03403 -20.2485
3160 1 -6.0753 2.01305 -20.2809
2303 1 -2.03355 4.02851 -18.2652
2304 1 -4.04663 2.00724 -18.2602
3159 1 -4.05839 4.0371 -20.2908
3168 1 -2.04295 2.01421 -20.3143
2311 1 -0.0204896 2.00828 -18.2861
3167 1 -0.0230921 4.03957 -20.311
2310 1 1.99513 4.02848 -18.2756
2318 1 4.01412 2.00833 -18.2827
3175 1 4.01965 4.03767 -20.3062
3176 1 1.99823 2.01533 -20.3231
2317 1 6.0301 4.02411 -18.2565
2325 1 8.05183 2.00774 -18.2479
3183 1 8.06516 4.03265 -20.2754
3184 1 6.04551 2.01499 -20.3055
2324 1 10.067 4.02105 -18.21
3192 1 10.0904 2.01398 -20.2623
2332 1 12.0881 2.00856 -18.1915
3191 1 12.1048 4.02769 -20.2201
2142 1 14.1077 4.02126 -18.1391
3200 1 14.1245 2.01228 -20.201
2145 1 16.1235 2.01038 -18.1159
2969 1 16.1164 3.9962 -20.1127
2950 1 20.1406 1.98376 -18.0722
2972 1 18.121 1.98397 -20.0882
3714 1 18.1775 4.02264 -18.1271
3815 1 -16.1448 6.04952 -18.1296
3047 1 -14.0877 6.01928 -20.105
3809 1 -14.121 8.06615 -18.1294
2211 1 -12.0857 6.04104 -18.1232
3044 1 -12.0752 8.03745 -20.1121
2208 1 -10.0721 8.05735 -18.1328
3142 1 -10.0912 6.04999 -20.2051
2287 1 -6.05267 8.06271 -18.1966
2288 1 -8.06243 6.04247 -18.1893
3141 1 -8.07904 8.07102 -20.2143
3150 1 -6.0705 6.05672 -20.2586
2294 1 -2.03201 8.06884 -18.231
2295 1 -4.04366 6.04695 -18.2355
3149 1 -4.05524 8.08071 -20.2597
3158 1 -2.04041 6.06205 -20.2895
2302 1 -0.0195934 6.04963 -18.2574
3157 1 -0.0213815 8.08437 -20.2779
2301 1 1.99566 8.06796 -18.2387
2309 1 4.01112 6.04511 -18.2526
3165 1 4.01848 8.07846 -20.2714
3166 1 1.99753 6.06186 -20.2962
2308 1 6.02813 8.05851 -18.2196
2316 1 8.04603 6.03694 -18.2197
3173 1 8.05837 8.06485 -20.2371
3174 1 6.04021 6.05444 -20.278
2136 1 10.0653 8.04873 -18.1653
3182 1 10.0814 6.04444 -20.2324
2139 1 12.0863 6.03275 -18.155
2963 1 12.0742 8.02644 -20.1396
2966 1 14.0974 6.0102 -20.1282
3701 1 14.1262 8.05894 -18.1581
3707 1 16.1542 6.04352 -18.147
3804 1 -12.1026 10.0841 -18.1322
3041 1 -10.0634 10.0581 -20.1192
3800 1 -10.0908 12.1078 -18.1398
2205 1 -8.06238 10.0782 -18.1402
3140 1 -6.06679 10.0938 -20.2178
2202 1 -6.05465 12.1027 -18.1443
3038 1 -8.05211 12.0811 -20.125
2286 1 -4.0435 10.0853 -18.1963
3148 1 -2.03862 10.1027 -20.2524
2293 1 -0.0183276 10.0889 -18.218
2285 1 -2.03191 12.1069 -18.1899
3139 1 -4.05312 12.1153 -20.2159
3147 1 -0.0193903 12.1195 -20.2388
2300 1 4.01325 10.083 -18.2114
3156 1 1.99914 10.1011 -20.258
2292 1 1.99903 12.1057 -18.1976
3155 1 4.01981 12.1109 -20.2277
2133 1 8.04803 10.0716 -18.1691
3164 1 6.0382 10.0883 -20.2349
2130 1 6.03377 12.0981 -18.1672
2957 1 8.03141 12.0712 -20.1493
2960 1 10.0516 10.0468 -20.1466
3696 1 12.1024 10.077 -18.1677
3692 1 10.0844 12.1024 -18.1763
3035 1 -6.0391 14.1038 -20.1291
3797 1 -8.08145 14.1379 -18.1507
3795 1 -6.06835 16.1702 -18.1611
2199 1 -4.04528 14.1259 -18.1447
3138 1 -2.03612 14.1318 -20.21
2284 1 -0.0155683 14.1247 -18.1773
2196 1 -2.03212 16.141 -18.1378
3032 1 -4.02296 16.1211 -20.1308
3137 1 -0.0158414 16.1399 -20.1966
2127 1 4.0202 14.1221 -18.1604
3146 1 2.00165 14.129 -20.2162
2124 1 2.00696 16.1382 -18.1455
2951 1 3.99412 16.1147 -20.1444
2954 1 6.01244 14.0956 -20.1487
3689 1 8.06868 14.1336 -18.1829
3687 1 6.05063 16.165 -18.185
3029 1 -2.00531 18.1225 -20.1234
3030 1 -2.00159 20.156 -18.1247
3794 1 -4.04514 18.1945 -18.1616
2020 1 -0.0104014 18.1303 -18.1018
2832 1 -0.0111889 20.0636 -20.0674
2948 1 1.97854 18.1188 -20.1302
2949 1 1.98585 20.1521 -18.1309
3686 1 4.02635 18.1886 -18.176
3760 1 -6.0619 -18.2467 -16.1387
3009 1 -6.03353 -20.2504 -14.1057
3763 1 -8.08218 -18.2735 -14.1217
2173 1 -2.0239 -18.2199 -16.1093
3006 1 -4.01305 -20.2162 -16.1172
2176 1 -4.03692 -18.2626 -14.0943
3300 1 -2.01853 -20.3222 -14.1343
2150 1 2.02025 -18.2172 -16.1192
2980 1 4.01747 -20.2079 -16.1332
3299 1 0.000632859 -20.2731 -16.1441
2153 1 4.04556 -18.2542 -14.1139
2412 1 0.0018789 -18.2857 -14.1013
3308 1 2.03069 -20.3162 -14.1427
3751 1 6.06844 -18.2414 -16.1661
2983 1 6.04911 -20.2326 -14.1244
3752 1 8.09907 -18.2595 -14.1441
3765 1 -10.0924 -14.1652 -16.115
3766 1 -10.1008 -16.224 -14.1094
3770 1 -12.1201 -14.1789 -14.0981
3762 1 -8.0808 -16.2065 -16.1293
2773 1 -6.07311 -14.1758 -16.1273
2774 1 -6.07139 -16.2366 -14.0974
2776 1 -8.08027 -14.1853 -14.079
2772 1 -4.05991 -16.2095 -16.1295
1380 1 -0.0062999 -16.1695 -16.0972
1512 1 -2.02982 -14.1499 -16.1131
1513 1 -2.0247 -16.2163 -14.0728
1974 1 -4.04826 -14.1759 -14.0691
888 1 -0.00800394 -14.1608 -14.0634
2765 1 4.05636 -16.2096 -16.1528
1509 1 2.01365 -14.1518 -16.1261
1493 1 2.02146 -16.2157 -14.0863
1968 1 4.04748 -14.1837 -14.1016
3744 1 8.0945 -16.2088 -16.169
2759 1 6.07569 -14.1815 -16.1641
2766 1 6.08451 -16.2357 -14.1317
2760 1 8.10036 -14.1934 -14.1286
3738 1 10.1114 -14.1695 -16.1612
3745 1 10.1185 -16.2154 -14.1341
3739 1 12.1278 -14.1669 -14.1162
3774 1 -14.1413 -10.1146 -16.1123
3775 1 -14.1562 -12.1506 -14.1009
3781 1 -16.2039 -10.1284 -14.112
3769 1 -12.1108 -12.1356 -16.1086
2778 1 -10.0947 -10.1206 -16.1155
2779 1 -10.0902 -12.1453 -14.0645
2783 1 -12.1183 -10.1244 -14.0652
2775 1 -8.08135 -12.1442 -16.1215
1518 1 -6.04813 -10.1017 -16.1197
1975 1 -6.05419 -12.1331 -14.0556
1977 1 -8.05696 -10.1054 -14.0473
1515 1 -4.04148 -12.1249 -16.1183
1651 1 -0.0117818 -12.126 -16.141
1644 1 -2.02643 -10.1032 -16.1516
1002 1 -2.02854 -12.1248 -14.0601
1005 1 -4.03431 -10.0932 -14.054
1109 1 -0.0134538 -10.1005 -14.0814
1506 1 4.02941 -12.13 -16.1441
1650 1 2.00394 -10.1058 -16.164
999 1 2.00999 -12.1332 -14.0805
996 1 4.02533 -10.1063 -14.0948
2754 1 8.09028 -12.1491 -16.1663
1503 1 6.04355 -10.1034 -16.1539
1963 1 6.0631 -12.148 -14.1076
1959 1 8.07127 -10.1102 -14.1045
3733 1 12.1251 -12.1327 -16.149
2750 1 10.1026 -10.117 -16.1604
2755 1 10.1079 -12.1494 -14.1172
2751 1 12.119 -10.1156 -14.1031
3729 1 14.1437 -10.105 -16.1371
3734 1 14.1431 -12.1302 -14.1026
3730 1 16.176 -10.1084 -14.0989
3787 1 -18.211 -6.06483 -16.1216
3010 1 -20.2156 -6.04284 -14.0921
3788 1 -18.2458 -8.09862 -14.1167
3780 1 -16.1783 -8.09311 -16.1203
2787 1 -14.1424 -6.08322 -16.1061
2794 1 -16.2042 -6.08664 -14.084
2788 1 -14.1608 -8.10854 -14.0759
2782 1 -12.1163 -8.10235 -16.1102
1524 1 -10.072 -6.06564 -16.1012
1984 1 -12.1026 -6.07795 -14.043
1980 1 -10.0737 -8.09205 -14.0434
1521 1 -8.05779 -8.08255 -16.1138
1630 1 -6.04434 -6.06423 -16.1508
1008 1 -6.0333 -8.07487 -14.0516
1011 1 -8.04223 -6.06466 -14.0429
1636 1 -2.02433 -6.0677 -16.1885
1637 1 -4.03496 -8.08281 -16.1574
1643 1 -0.0126855 -8.08604 -16.18
1097 1 -4.0242 -6.06086 -14.0814
1103 1 -2.02294 -8.07568 -14.0822
1102 1 -0.0110778 -6.06135 -14.1098
1642 1 2.00087 -6.06585 -16.1996
1649 1 4.01866 -8.08229 -16.1793
1107 1 4.01289 -6.05461 -14.1154
1108 1 2.00172 -8.08033 -14.1029
1500 1 8.05625 -8.07537 -16.1539
1648 1 6.03227 -6.05624 -16.1833
990 1 8.04299 -6.04853 -14.092
993 1 6.03548 -8.07513 -14.1007
1497 1 10.0699 -6.05287 -16.1418
2747 1 12.1179 -8.09211 -16.1475
1956 1 10.0785 -8.08065 -14.0916
1954 1 12.0961 -6.06515 -14.075
2745 1 14.1395 -6.07499 -16.1313
3726 1 16.172 -8.08485 -16.1281
2748 1 14.1457 -8.0962 -14.0932
2746 1 16.1839 -6.07952 -14.0863
3724 1 18.2022 -6.06198 -16.1155
2982 1 20.1883 -6.03677 -14.0655
3727 1 18.2158 -8.08655 -14.0956
2174 1 -18.1772 -2.02378 -16.0741
3007 1 -20.1772 -4.0132 -16.0932
3388 1 -20.2322 -0.00288267 -16.1054
2177 1 -18.2241 -4.04514 -14.0712
3397 1 -20.2835 -2.02638 -14.1046
2483 1 -18.2433 -0.00470451 -14.0604
2793 1 -16.1691 -4.0611 -16.0997
1530 1 -14.1057 -2.02726 -16.0708
1381 1 -16.1232 -0.00404725 -16.0494
1514 1 -16.172 -2.02776 -14.0372
1989 1 -14.1369 -4.05689 -14.0435
889 1 -14.1091 -0.00507292 -14.012
1527 1 -12.0881 -4.04711 -16.0862
1616 1 -10.0657 -2.02741 -16.1099
1609 1 -12.0793 -0.00680044 -16.0869
1017 1 -12.0793 -2.02904 -14.0201
1014 1 -10.0582 -4.05063 -14.0305
1079 1 -10.049 -0.00982382 -14.0256
1622 1 -6.04422 -2.03109 -16.1606
1623 1 -8.055 -4.04666 -16.1328
1615 1 -8.05142 -0.0118919 -16.1331
1085 1 -8.03769 -2.03247 -14.0462
1091 1 -6.02988 -4.04887 -14.0674
1084 1 -6.02675 -0.0170179 -14.0642
1628 1 -2.02719 -2.03325 -16.2036
1629 1 -4.03525 -4.04926 -16.1814
1635 1 -0.0138469 -4.05033 -16.2102
1621 1 -4.03583 -0.0154468 -16.1823
1627 1 -0.0178668 -0.0152859 -16.2148
1090 1 -4.02332 -2.0348 -14.0905
1096 1 -2.01733 -4.04856 -14.1091
1095 1 -0.0121864 -2.03287 -14.129
1089 1 -2.0194 -0.0196692 -14.1097
1634 1 1.99754 -2.0302 -16.2196
1641 1 4.01412 -4.04231 -16.2066
1633 1 4.01028 -0.0119803 -16.2125
1100 1 4.00564 -2.02102 -14.1251
1101 1 1.99808 -4.04133 -14.1272
1094 1 1.99344 -0.0175423 -14.1321
1640 1 6.02784 -2.02161 -16.197
1647 1 8.04624 -4.03422 -16.1724
1639 1 8.0404 -0.00775023 -16.1714
1105 1 8.02963 -2.01845 -14.0848
1106 1 6.02143 -4.03006 -14.1106
1099 1 6.01174 -0.0110812 -14.1
1646 1 10.0603 -2.01962 -16.1482
1494 1 12.0858 -4.03805 -16.1205
1645 1 12.078 -0.00613178 -16.121
987 1 10.0539 -4.03573 -14.0693
984 1 12.0762 -2.02475 -14.0513
1104 1 10.0457 -0.00745767 -14.0619
1491 1 14.105 -2.02503 -16.0967
2744 1 16.1652 -4.0584 -16.1124
1379 1 16.123 -0.00680751 -16.0645
1953 1 14.1271 -4.05206 -14.0629
1492 1 16.1594 -2.02836 -14.0452
887 1 14.1049 -0.00782686 -14.0349
2149 1 18.1732 -2.02492 -16.0739
2979 1 20.1685 -4.01369 -16.0757
3469 1 20.2287 -0.00784433 -16.0913
2152 1 18.2023 -4.04235 -14.0627
3478 1 20.263 -2.02879 -14.0837
2547 1 18.2283 -0.00895706 -14.0558
2198 1 -18.1742 2.01585 -16.0698
3034 1 -20.1722 4.00529 -16.0863
2201 1 -18.2184 4.03213 -14.0615
3387 1 -20.2816 2.01665 -14.1007
2821 1 -16.1612 4.04853 -16.0893
1551 1 -14.1012 2.01585 -16.065
1535 1 -16.1677 2.01707 -14.0306
2010 1 -14.1259 4.03996 -14.028
1548 1 -12.079 4.02878 -16.0744
1608 1 -10.0607 2.00791 -16.1034
1035 1 -12.0726 2.01357 -14.0112
1032 1 -10.0463 4.02491 -14.013
1607 1 -8.04767 4.02097 -16.1193
1614 1 -6.04114 2.00284 -16.153
1077 1 -6.02368 4.01445 -14.049
1078 1 -8.03155 2.00395 -14.0366
1613 1 -4.03335 4.01929 -16.1659
1620 1 -2.02757 2.00191 -16.1948
1619 1 -0.0179736 4.0201 -16.1937
1082 1 -2.01858 4.01141 -14.0898
1083 1 -4.02129 1.99711 -14.0806
1088 1 -0.0148855 1.99469 -14.1174
1625 1 4.0052 4.0163 -16.191
1626 1 1.99353 2.00196 -16.2108
1087 1 1.99035 4.00703 -14.1076
1093 1 3.99896 1.99145 -14.114
1631 1 8.03551 4.0145 -16.1573
1632 1 6.02212 2.0012 -16.1888
1092 1 6.00728 4.00346 -14.0902
1098 1 8.02153 1.99966 -14.0738
1638 1 10.0552 2.00536 -16.1407
1485 1 12.0783 4.02208 -16.109
978 1 10.0418 4.01594 -14.0529
981 1 12.0722 2.009 -14.0449
1488 1 14.1027 2.01164 -16.092
2737 1 16.1629 4.04303 -16.1061
1947 1 14.1233 4.03405 -14.0548
1472 1 16.1592 2.01127 -14.0424
2126 1 18.1731 2.01003 -16.0715
2953 1 20.1695 3.99779 -16.0724
2129 1 18.2035 4.0243 -14.0594
3468 1 20.2641 2.00993 -14.0825
3823 1 -18.2007 6.05136 -16.1086
3037 1 -20.2104 6.0289 -14.0833
3824 1 -18.234 8.07829 -14.1022
3816 1 -16.1633 8.07128 -16.1016
2815 1 -14.13 6.06304 -16.0899
2822 1 -16.1915 6.06662 -14.0658
2816 1 -14.1437 8.08046 -14.0512
2810 1 -12.103 8.07555 -16.09
1545 1 -10.0615 6.04047 -16.0839
2005 1 -12.0871 6.05148 -14.02
2001 1 -10.0617 8.06102 -14.0178
1542 1 -8.05142 8.05545 -16.0933
1606 1 -6.03976 6.03616 -16.1313
1026 1 -6.03173 8.04661 -14.0289
1029 1 -8.0326 6.03256 -14.0194
1605 1 -4.03525 8.05622 -16.1356
1612 1 -2.02632 6.03847 -16.1675
1611 1 -0.0176565 8.05925 -16.1582
1075 1 -2.0253 8.0489 -14.0626
1076 1 -4.0235 6.02755 -14.0587
1081 1 -0.0157857 6.02853 -14.0873
1617 1 4.00752 8.05511 -16.1568
1618 1 1.99285 6.03747 -16.179
1080 1 1.99326 8.05186 -14.0791
1086 1 3.99958 6.0235 -14.0908
1479 1 8.04064 8.04916 -16.1314
1624 1 6.01924 6.03083 -16.1629
972 1 6.01856 8.04541 -14.0736
975 1 8.02449 6.02194 -14.0667
1482 1 10.0565 6.03159 -16.1231
2726 1 12.1036 8.06868 -16.1288
1938 1 10.06 8.05363 -14.0673
1942 1 12.0848 6.04337 -14.0588
2731 1 14.1318 6.05665 -16.119
3708 1 16.1654 8.06557 -16.1189
2732 1 14.1382 8.07399 -14.0814
2738 1 16.1823 6.06036 -14.0799
3715 1 18.2009 6.04532 -16.11
2956 1 20.1912 6.01799 -14.0633
3716 1 18.2168 8.06734 -14.0935
3810 1 -14.1263 10.0861 -16.0913
3817 1 -16.1882 10.1014 -14.0935
3811 1 -14.1446 12.1236 -14.0845
2806 1 -10.0866 10.0934 -16.0954
3805 1 -12.1023 12.1075 -16.0912
2811 1 -12.1049 10.0948 -14.0408
2807 1 -10.087 12.1243 -14.0486
1539 1 -6.04772 10.0778 -16.1004
2803 1 -8.08047 12.122 -16.1062
1998 1 -8.05471 10.0808 -14.0267
1996 1 -6.05716 12.1179 -14.0445
1604 1 -2.02928 10.0802 -16.1324
1536 1 -4.0439 12.1056 -16.104
1603 1 -0.0163498 12.1057 -16.1248
1023 1 -4.03648 10.0733 -14.0389
1074 1 -0.0180861 10.079 -14.0633
1020 1 -2.03221 12.11 -14.0484
1610 1 1.9966 10.081 -16.143
1473 1 4.02011 12.1063 -16.1254
969 1 4.01406 10.0804 -14.0715
966 1 2.00322 12.1145 -14.0641
1476 1 6.03019 10.0765 -16.1316
2719 1 8.07468 12.1217 -16.1456
1935 1 8.05279 10.0817 -14.0786
1933 1 6.04943 12.1239 -14.0864
2722 1 10.0852 10.0894 -16.1383
3697 1 12.1078 12.105 -16.1323
2727 1 12.1047 10.0899 -14.0855
2723 1 10.0915 12.1237 -14.0982
3702 1 14.1302 10.081 -16.123
3709 1 16.1725 10.0876 -14.0958
3703 1 14.1343 12.1076 -14.0976
3801 1 -10.0922 14.1434 -16.1058
3806 1 -12.118 14.1597 -14.0899
3802 1 -10.1052 16.2121 -14.1091
2801 1 -6.07607 14.1587 -16.1187
3798 1 -8.08497 16.19 -16.1275
2804 1 -8.08372 14.1731 -14.0726
2802 1 -6.0769 16.2271 -14.0963
1533 1 -2.03355 14.1332 -16.1031
2800 1 -4.06424 16.1945 -16.1261
1378 1 -0.0111238 16.1539 -16.0914
1995 1 -4.05284 14.1646 -14.0626
886 1 -0.0130783 14.1482 -14.0541
1534 1 -2.03028 16.2065 -14.0697
1470 1 2.0075 14.1328 -16.1134
2716 1 4.04862 16.1908 -16.1442
1932 1 4.0384 14.1666 -14.0878
1471 1 2.0148 16.204 -14.0798
2717 1 6.06428 14.158 -16.1486
3690 1 8.08252 16.1856 -16.1598
2720 1 8.08654 14.1722 -14.1138
2718 1 6.07438 16.2205 -14.1235
3693 1 10.0955 14.1423 -16.1465
3698 1 12.1163 14.1449 -14.1111
3694 1 10.1077 16.1971 -14.1316
3796 1 -6.06715 18.2319 -16.142
3036 1 -6.04012 20.2409 -14.1141
3799 1 -8.08835 18.2638 -14.1261
2197 1 -2.02893 18.2056 -16.1102
3033 1 -4.01853 20.2019 -16.1247
3218 1 -0.00470014 20.2586 -16.1493
2200 1 -4.04315 18.2537 -14.097
3219 1 -2.02533 20.3131 -14.1407
2348 1 -0.00465511 18.2763 -14.1015
2125 1 2.01446 18.2017 -16.1177
2952 1 4.0113 20.1922 -16.1366
2128 1 4.03799 18.2434 -14.112
3227 1 2.02369 20.3066 -14.147
3688 1 6.0601 18.2229 -16.1634
2955 1 6.04178 20.2223 -14.129
3691 1 8.09022 18.246 -14.1453
3767 1 -10.1183 -18.2994 -12.1185
3772 1 -12.1696 -18.3183 -10.1182
3015 1 -10.1121 -20.2941 -10.0894
2179 1 -6.05529 -18.3007 -12.0817
3012 1 -8.06601 -20.2779 -12.0961
2182 1 -8.09024 -18.3284 -10.0778
3302 1 -6.07619 -20.3975 -10.1087
2413 1 -2.01375 -18.3364 -12.0831
3301 1 -4.04141 -20.3653 -12.1208
2414 1 -4.03293 -18.3827 -10.0705
3310 1 -2.0129 -20.4283 -10.1146
2420 1 2.02904 -18.3298 -12.0931
3309 1 0.0114133 -20.3766 -12.1305
3317 1 4.06331 -20.3489 -12.1343
2421 1 0.0129716 -18.3896 -10.076
2428 1 4.05677 -18.364 -10.0805
3318 1 2.04558 -20.4175 -10.121
2156 1 6.07168 -18.2812 -12.0998
2986 1 8.07937 -20.2524 -12.1071
2159 1 8.09508 -18.3014 -10.0793
3326 1 6.09409 -20.3749 -10.1177
3753 1 10.124 -18.2717 -12.1182
2989 1 10.1066 -20.2677 -10.0852
3754 1 12.1478 -18.2807 -10.0967
3776 1 -14.1848 -14.2109 -12.1146
3777 1 -14.2101 -16.277 -10.1218
3783 1 -16.2552 -14.2381 -10.1211
3771 1 -12.1479 -16.252 -12.1158
2780 1 -10.1068 -14.2102 -12.0695
2781 1 -10.1348 -16.296 -10.0925
2785 1 -12.1711 -14.2442 -10.0926
2777 1 -8.08998 -16.2675 -12.0841
1976 1 -6.04975 -14.193 -12.0267
1519 1 -6.04827 -16.2948 -10.0413
1979 1 -8.06988 -14.2322 -10.0319
1516 1 -4.03357 -16.2537 -12.0478
1003 1 -2.02207 -14.188 -12.0228
1702 1 -2.00839 -16.3086 -10.0335
1006 1 -4.01943 -14.2137 -9.98933
1496 1 4.04667 -16.2496 -12.0724
1701 1 0.00179574 -16.2634 -12.0558
986 1 2.01779 -14.1941 -12.043
1708 1 2.02747 -16.3047 -10.0455
989 1 4.04298 -14.2226 -10.0256
1146 1 0.00139735 -14.2254 -10.0062
2767 1 8.10608 -16.2517 -12.1044
1969 1 6.07181 -14.2027 -12.0725
1499 1 6.06885 -16.2746 -10.0529
1970 1 8.08391 -14.2106 -10.0374
3746 1 12.1369 -16.2183 -12.1017
2761 1 10.1135 -14.1953 -12.0872
2768 1 10.1228 -16.2609 -10.077
2762 1 12.1303 -14.1972 -10.0584
3740 1 14.149 -14.1686 -12.0853
3747 1 14.1651 -16.226 -10.0858
3741 1 16.1955 -14.1839 -10.0804
3789 1 -18.2767 -10.1442 -12.1174
3790 1 -18.2968 -12.1973 -10.1142
3016 1 -20.2649 -10.1337 -10.0811
3782 1 -16.2335 -12.1798 -12.1186
2789 1 -14.1909 -10.1456 -12.0749
2790 1 -14.2215 -12.2049 -10.0939
2796 1 -16.2741 -10.1697 -10.0926
2784 1 -12.1388 -12.1695 -12.0652
1981 1 -10.0606 -10.1006 -11.9819
1982 1 -10.0921 -12.1696 -10.0206
1986 1 -12.1465 -10.1382 -10.0272
1978 1 -8.0481 -12.1289 -11.9921
1345 1 -6.02851 -10.0791 -11.9624
1346 1 -6.01544 -12.1268 -9.93613
1348 1 -7.99376 -10.0449 -9.8667
1344 1 -4.03462 -12.1288 -11.9955
526 1 -0.0112138 -12.1338 -12.0135
622 1 -2.0255 -10.085 -11.9892
623 1 -2.01586 -12.1378 -9.95659
862 1 -4.01302 -10.059 -9.89253
274 1 -0.0114866 -10.0881 -9.94685
1339 1 4.03864 -12.1532 -12.048
619 1 2.00545 -10.1063 -12.0273
609 1 2.0134 -12.1605 -9.99385
858 1 4.03219 -10.1158 -9.99322
1964 1 8.07814 -12.1489 -12.0596
1335 1 6.04844 -10.1084 -12.0459
1340 1 6.05616 -12.1589 -10.0087
1336 1 8.03697 -10.0888 -9.97527
2756 1 12.1196 -12.1457 -12.0687
1960 1 10.0756 -10.1024 -12.0397
1965 1 10.0773 -12.1414 -10.0107
1961 1 12.0912 -10.102 -9.99742
3735 1 16.1823 -12.139 -12.082
2752 1 14.1485 -10.1182 -12.0617
2757 1 14.1574 -12.1539 -10.0499
2753 1 16.2114 -10.1305 -10.0524
3731 1 18.2281 -10.1157 -12.0826
3736 1 18.2412 -12.154 -10.0791
2988 1 20.2222 -10.1031 -10.0512
2180 1 -18.2664 -6.07491 -12.0708
3013 1 -20.2462 -8.08398 -12.0885
2183 1 -18.2968 -8.1174 -10.0715
3415 1 -20.3603 -6.09885 -10.0959
2795 1 -16.2431 -8.12008 -12.084
1990 1 -14.1656 -6.0787 -12.0244
1520 1 -16.2624 -6.07847 -10.037
1991 1 -14.2125 -8.11362 -10.0395
1985 1 -12.1085 -8.09488 -12.0021
1350 1 -10.0537 -6.07171 -11.9674
1355 1 -12.1122 -6.06626 -9.95636
1351 1 -10.0325 -8.06216 -9.89715
628 1 -6.00943 -6.05436 -11.9619
1347 1 -8.02547 -8.07001 -11.9591
863 1 -5.98491 -8.00748 -9.82224
865 1 -7.99287 -6.05629 -9.85814
625 1 -4.01932 -8.05282 -11.9636
696 1 -2.01192 -6.04921 -11.9983
701 1 -0.0124482 -8.06972 -12.0142
352 1 -2.00826 -8.02854 -9.88867
355 1 -3.98228 -6.00728 -9.83193
616 1 4.01943 -8.07485 -12.0383
700 1 2.00187 -6.05118 -12.0364
346 1 4.01084 -6.0268 -9.97462
349 1 2.00775 -8.07296 -9.97006
407 1 0.00844752 -6.03773 -9.93242
613 1 6.01906 -6.03806 -12.034
1332 1 8.04354 -8.06614 -12.0301
853 1 7.98191 -6.02432 -9.91897
855 1 6.02001 -8.05182 -9.97268
1330 1 10.0474 -6.05106 -12.0071
1957 1 12.0933 -8.08125 -12.0273
1333 1 10.0263 -8.05569 -9.94838
1331 1 12.085 -6.05704 -9.96341
1955 1 14.1394 -6.07019 -12.0288
2749 1 16.1975 -8.10103 -12.0635
1958 1 14.1498 -8.08945 -10.0058
1498 1 16.2083 -6.06693 -10.0078
2155 1 18.2252 -6.06409 -12.0487
2985 1 20.2062 -8.06596 -12.0558
2158 1 18.2458 -8.09285 -10.0392
3496 1 20.3151 -6.08239 -10.0644
2491 1 -18.2961 -2.02711 -12.0555
3406 1 -20.3279 -4.0573 -12.1015
3396 1 -20.3422 -0.00628395 -12.0973
2499 1 -18.3432 -4.05604 -10.055
3405 1 -20.3913 -2.03708 -10.091
2490 1 -18.3526 -0.00768094 -10.0461
1517 1 -16.2157 -4.04909 -12.0305
1004 1 -14.1411 -2.02707 -11.9913
1756 1 -16.2163 -0.00556922 -12.0148
1763 1 -16.2654 -2.02595 -10.0122
1007 1 -14.1799 -4.04521 -9.9855
1187 1 -14.1681 -0.00617951 -9.96676
1354 1 -12.0938 -4.05318 -11.9818
634 1 -10.0405 -2.03323 -11.958
527 1 -12.0728 -0.00644532 -11.9598
624 1 -12.0904 -2.02602 -9.93516
868 1 -10.0377 -4.05433 -9.9037
275 1 -10.0165 -0.0120771 -9.88949
631 1 -8.02151 -4.05549 -11.9594
686 1 -6.01075 -2.04139 -11.9754
681 1 -8.01475 -0.0162869 -11.9568
358 1 -5.98065 -4.0548 -9.86038
361 1 -7.99501 -2.04789 -9.87951
395 1 -5.98233 -0.0302688 -9.88442
690 1 -2.00196 -2.03921 -12.019
691 1 -4.00587 -4.05039 -11.9914
695 1 -0.00364556 -4.04011 -12.0291
685 1 -4.00423 -0.0244034 -11.9918
689 1 -0.00510291 -0.0266332 -12.034
399 1 -3.97622 -2.05259 -9.90922
403 1 -1.97767 -4.03268 -9.89513
398 1 -1.96959 -0.0374389 -9.92486
694 1 1.99299 -2.02188 -12.0388
699 1 4.00253 -4.0226 -12.0409
693 1 3.98371 -0.0187645 -12.013
402 1 0.0104915 -2.03055 -9.92099
405 1 3.96012 -2.01255 -9.90561
406 1 2.00749 -4.01656 -9.95187
401 1 1.96157 -0.0395482 -9.88901
610 1 8.01512 -4.02801 -12.0028
698 1 5.99648 -2.01603 -12.0089
697 1 8.00738 -0.00983303 -11.99
340 1 7.98906 -2.02108 -9.91375
343 1 5.96329 -4.01036 -9.91236
404 1 5.96067 -0.0183237 -9.89669
607 1 10.0385 -2.02295 -11.9915
1329 1 12.0838 -4.0449 -12.0043
525 1 12.073 -0.00908232 -11.9872
852 1 10.0285 -4.03507 -9.93192
608 1 12.0835 -2.0271 -9.9465
273 1 10.0269 -0.0115232 -9.92307
985 1 14.1274 -2.02835 -12.0021
1495 1 16.1855 -4.04639 -12.0241
1805 1 16.1955 -0.0100575 -12.0151
988 1 14.1472 -4.04458 -9.97496
1812 1 16.228 -2.02848 -9.99472
1223 1 14.1525 -0.0115738 -9.96721
2555 1 18.2635 -2.02821 -12.0405
3487 1 20.2902 -4.05287 -12.0733
3477 1 20.3086 -0.0108062 -12.0722
2563 1 18.2939 -4.05065 -10.0272
3486 1 20.3444 -2.03593 -10.0604
2554 1 18.3085 -0.0113998 -10.0237
2482 1 -18.2939 2.01398 -12.0501
3386 1 -20.3268 4.04252 -12.0953
2481 1 -18.3425 4.03894 -10.0478
3395 1 -20.3924 2.02056 -10.0882
1538 1 -16.207 4.03243 -12.0159
1022 1 -14.1339 2.01428 -11.9808
1755 1 -16.2613 2.01046 -10.0043
1025 1 -14.1639 4.02314 -9.9618
1369 1 -12.0768 4.02993 -11.9577
649 1 -10.0295 2.00936 -11.943
639 1 -12.0768 2.00816 -9.91671
878 1 -10.0089 4.0148 -9.86336
646 1 -8.00609 4.01543 -11.9327
680 1 -6.00309 1.99698 -11.961
370 1 -5.96168 3.98892 -9.82375
373 1 -7.97591 1.99699 -9.85194
679 1 -4.00306 4.00281 -11.9682
684 1 -2.0027 1.98795 -12.0046
683 1 -0.00790182 3.99528 -12.0081
393 1 -1.97802 3.9792 -9.88285
394 1 -3.97023 1.98041 -9.8808
687 1 3.98547 3.98469 -12.0136
688 1 1.98715 1.97521 -12.0244
396 1 1.99212 3.96377 -9.92403
397 1 0.0109075 1.95692 -9.90986
400 1 3.93595 1.95654 -9.87803
601 1 7.9943 4.0013 -11.9778
692 1 5.98291 1.9873 -11.9913
334 1 5.92509 3.96743 -9.87077
337 1 7.97438 1.99347 -9.8987
604 1 10.0311 2.00382 -11.9819
1324 1 12.0769 4.0237 -11.9939
848 1 10.0155 4.00833 -9.91813
594 1 12.0815 2.00374 -9.94298
968 1 14.1266 2.00875 -11.9989
1475 1 16.1868 4.02617 -12.0209
971 1 14.1482 4.0215 -9.97258
1804 1 16.2295 2.00568 -9.99404
2546 1 18.2649 2.0076 -12.0393
3467 1 20.2932 4.0322 -12.0722
2545 1 18.2974 4.02938 -10.0272
3476 1 20.3462 2.01308 -10.0602
2204 1 -18.2614 6.05709 -12.0593
3040 1 -20.2438 8.06684 -12.083
2207 1 -18.2959 8.1004 -10.0653
3385 1 -20.3619 6.08208 -10.0912
2823 1 -16.2304 8.09606 -12.0652
2011 1 -14.1474 6.05259 -11.9976
1541 1 -16.2556 6.05811 -10.0231
2012 1 -14.197 8.08817 -10.0181
2006 1 -12.0886 8.06067 -11.9696
1365 1 -10.0344 6.03496 -11.935
1370 1 -12.0828 6.02902 -9.91429
1366 1 -10.0111 8.02161 -9.85714
643 1 -6.00377 6.01499 -11.9348
1362 1 -8.01881 8.0375 -11.9309
873 1 -5.98288 7.99784 -9.8213
875 1 -7.96948 6.00205 -9.8152
640 1 -4.01997 8.03023 -11.9521
678 1 -2.01378 6.01394 -11.9809
677 1 -0.0181133 8.04416 -11.9957
364 1 -2.01264 8.01428 -9.88463
367 1 -3.97873 5.98013 -9.82953
392 1 -0.0021146 6.00216 -9.91652
595 1 4.00335 8.0434 -12.0089
682 1 1.99094 6.01523 -12.0094
328 1 1.99345 8.04828 -9.94739
331 1 3.98137 5.98569 -9.93141
598 1 5.99391 6.00369 -11.9998
1317 1 8.01825 8.03436 -11.9985
843 1 5.98617 8.01629 -9.93175
845 1 7.9498 5.98797 -9.887
1320 1 10.0291 6.02426 -11.9851
1943 1 12.083 8.05636 -12.0137
1321 1 10.0108 8.02711 -9.93356
1325 1 12.0802 6.03189 -9.95679
1948 1 14.1368 6.04849 -12.0217
2739 1 16.1995 8.0816 -12.0619
1949 1 14.1532 8.06975 -10.0077
1478 1 16.2126 6.04664 -10.0084
2132 1 18.2287 6.04484 -12.0472
2959 1 20.2111 8.04746 -12.0572
2135 1 18.2514 8.07635 -10.0426
3466 1 20.3196 6.06312 -10.0655
3825 1 -18.269 10.1234 -12.1099