ITEM: TIMESTEP
140
ITEM: NUMBER OF ATOMS
3871
ITEM: BOX BOUNDS ss ss ss
-2.0140558083525878e+01 2.4559981851911111e+01
-2.3358369469385810e+01 2.3358369246367527e+01
-2.8872093948858172e+01 2.8872093948858176e+01
ITEM: ATOMS id type x y z
3028 1 -3.97038 -2.88465 -26.0226
3764 1 -1.23719 -3.80769 -26.0728
3044 1 0.754367 -2.3217 -27.4752
3046 1 1.51655 -4.66747 -26.0226
3728 1 3.23901 -2.35328 -26.0728
3800 1 -4.00364 4.53286e-07 -26.0728
2069 1 8.37346e-08 2.57709e-07 -26.0718
2881 1 8.36903e-08 2.57572e-07 -28.8667
3008 1 -1.97496 1.43489 -27.4752
3026 1 -1.97496 -1.43489 -27.4752
2972 1 2.44118 1.38386e-07 -27.4752
2974 1 4.90766 1.80207e-08 -26.0226
3010 1 -3.97038 2.88465 -26.0226
3836 1 -1.23719 3.80769 -26.0728
2990 1 0.754368 2.3217 -27.4752
2992 1 1.51655 4.66747 -26.0226
3692 1 3.23901 2.35328 -26.0728
3773 1 1.05875 -10.8918 -21.7003
3052 1 3.80996 -11.7258 -21.6232
3034 1 -9.9746 -7.24697 -21.6232
3770 1 -7.25858 -8.18931 -21.7003
3767 1 -5.25263 -6.73227 -23.1663
3771 1 -4.49524 -9.11286 -21.7231
3768 1 -2.48504 -7.64815 -23.181
3772 1 -1.71968 -10.0147 -21.7231
2218 1 2.2855 -7.03405 -21.7351
3048 1 2.28033 -7.01813 -24.5606
3769 1 0.292333 -8.53394 -23.1663
3050 1 3.04502 -9.3716 -23.0939
3731 1 4.77962 -7.07593 -23.1663
3734 1 5.54548 -9.43396 -21.7003
3735 1 7.27774 -7.09125 -21.7231
3032 1 -7.97196 -5.79197 -23.0939
3805 1 -8.02592 -2.91516 -23.1663
3809 1 -10.0315 -4.37268 -21.7003
2200 1 -3.98445 -2.89487 -23.1956
2202 1 -5.98352 -4.34728 -21.7351
3030 1 -5.96998 -4.33744 -24.5606
2787 1 -3.24496 -5.28065 -21.7706
3765 1 -3.24569 -5.27271 -24.6255
2786 1 -1.23991 -3.81605 -23.2202
2788 1 -0.478661 -6.17947 -21.7706
3766 1 -0.473407 -6.17348 -24.6255
1554 1 0.75933 -2.33698 -21.7672
2214 1 0.759254 -2.33674 -24.6476
2216 1 1.52192 -4.684 -23.1956
2758 1 3.24613 -2.35845 -23.2202
2759 1 4.01945 -4.71795 -21.7706
3729 1 4.01167 -4.71619 -24.6255
2760 1 5.72911 -2.3648 -21.7706
3730 1 5.72504 -2.35795 -24.6255
3732 1 6.50591 -4.72682 -23.181
3733 1 8.2066 -2.35911 -23.1663
3736 1 8.99313 -4.73023 -21.7231
3737 1 10.6859 -2.35881 -21.7003
3804 1 -8.04174 6.50811e-07 -23.181
3807 1 -10.056 1.4592 -21.7231
3808 1 -10.056 -1.4592 -21.7231
2814 1 -4.01244 4.53913e-07 -23.2202
2815 1 -6.02494 1.45433 -21.7706
2816 1 -6.02494 -1.45433 -21.7706
3801 1 -6.01762 1.45747 -24.6255
3802 1 -6.01762 -1.45747 -24.6255
1427 1 8.38013e-08 2.57914e-07 -23.2047
1526 1 -1.98795 1.44433 -21.7672
1540 1 -1.98795 -1.44433 -21.7672
2182 1 -1.98775 1.44419 -24.6476
2198 1 -1.98775 -1.44419 -24.6476
1498 1 2.45724 1.38009e-07 -21.7672
2150 1 2.457 1.37787e-07 -24.6476
2152 1 4.92505 1.73745e-08 -23.1956
2154 1 7.39604 -1.03173e-07 -21.7351
2976 1 7.3793 -1.02558e-07 -24.5606
2978 1 9.85388 -2.23278e-07 -23.0939
2980 1 12.3293 -3.44057e-07 -21.6232
3014 1 -7.97196 5.79197 -23.0939
3803 1 -8.02592 2.91516 -23.1663
3806 1 -10.0315 4.37268 -21.7003
2184 1 -3.98445 2.89487 -23.1956
2186 1 -5.98352 4.34728 -21.7351
3012 1 -5.96998 4.33744 -24.5606
2844 1 -3.24496 5.28065 -21.7706
3838 1 -3.24569 5.27271 -24.6255
2842 1 -1.23991 3.81605 -23.2202
2843 1 -0.478661 6.17947 -21.7706
3837 1 -0.473406 6.17348 -24.6255
1512 1 0.75933 2.33698 -21.7672
2166 1 0.759255 2.33674 -24.6476
2168 1 1.52193 4.684 -23.1956
2730 1 3.24613 2.35845 -23.2202
2732 1 4.01945 4.71795 -21.7706
3694 1 4.01168 4.71619 -24.6255
2731 1 5.72911 2.3648 -21.7706
3693 1 5.72504 2.35795 -24.6255
3696 1 6.50591 4.72682 -23.181
3695 1 8.2066 2.35911 -23.1663
3698 1 10.6859 2.35881 -21.7003
3699 1 8.99313 4.73023 -21.7231
3016 1 -9.9746 7.24697 -21.6232
3845 1 -7.25858 8.18932 -21.7003
3841 1 -5.25263 6.73227 -23.1663
3844 1 -4.49524 9.11286 -21.7231
3840 1 -2.48503 7.64815 -23.181
3843 1 -1.71968 10.0147 -21.7231
2170 1 2.2855 7.03405 -21.7351
2994 1 2.28033 7.01813 -24.5606
3839 1 0.292334 8.53394 -23.1663
2996 1 3.04502 9.3716 -23.0939
3697 1 4.77962 7.07593 -23.1663
3701 1 5.54548 9.43396 -21.7003
3700 1 7.27774 7.09125 -21.7231
3842 1 1.05876 10.8918 -21.7003
2998 1 3.80996 11.7258 -21.6232
3788 1 -4.97253 -15.3039 -17.3323
3789 1 -2.19508 -16.199 -17.3257
3790 1 0.582372 -17.0792 -17.305
3784 1 2.59099 -15.5979 -18.7515
3791 1 3.35585 -17.9424 -17.2657
3056 1 5.33842 -16.43 -18.6667
3058 1 6.10025 -18.7747 -17.1737
3749 1 7.83136 -16.4883 -17.2657
3040 1 -15.9707 -11.6034 -17.1737
3785 1 -13.2612 -12.5432 -17.2657
3779 1 -11.2644 -11.096 -18.7515
3780 1 -8.5088 -12.0263 -18.7846
3786 1 -10.5101 -13.4751 -17.305
3787 1 -7.74567 -14.3955 -17.3257
3781 1 -5.74 -12.9425 -18.7992
2798 1 -3.73056 -11.4815 -17.401
3776 1 -3.73091 -11.4826 -20.2655
3782 1 -2.96369 -13.8446 -18.7992
2799 1 -0.961144 -12.3708 -17.3942
3777 1 -0.95261 -12.3755 -20.2571
3783 1 -0.185105 -14.7308 -18.7846
2795 1 1.04812 -10.8903 -18.845
2800 1 1.81167 -13.2393 -17.3727
3778 1 1.82513 -13.2468 -20.2289
2222 1 3.81308 -11.7354 -18.7985
2224 1 4.5757 -14.0826 -17.3227
2768 1 6.31621 -11.7757 -17.3727
3054 1 4.57463 -14.0793 -20.1482
3738 1 6.30972 -11.7897 -20.2289
3743 1 7.07204 -14.1419 -18.7515
3744 1 8.80831 -11.8087 -18.7846
3750 1 9.56778 -14.1597 -17.305
3751 1 11.2974 -11.815 -17.3257
3827 1 -16.0273 -8.73612 -17.2657
3038 1 -13.9762 -10.1543 -18.6667
3820 1 -14.0338 -7.28419 -18.7515
2208 1 -11.9793 -8.7035 -17.3227
3036 1 -11.9765 -8.70146 -20.1482
2206 1 -9.98277 -7.2529 -18.7985
2796 1 -9.24755 -9.64596 -17.3727
3774 1 -9.26284 -9.6441 -20.2289
2792 1 -7.24912 -8.19439 -18.845
1998 1 -5.2392 -6.72664 -17.4164
2789 1 -5.24789 -6.73932 -20.3112
2793 1 -4.49159 -9.11616 -18.8618
2797 1 -6.49381 -10.5732 -17.3942
3775 1 -6.50348 -10.5719 -20.2571
1999 1 -2.48146 -7.63714 -17.4241
2790 1 -2.48654 -7.65277 -20.3214
2794 1 -1.72457 -10.0152 -18.8618
1558 1 2.28486 -7.03207 -18.8558
2000 1 0.284784 -8.52149 -17.4164
2791 1 0.284352 -8.53686 -20.3112
1560 1 3.04782 -9.38021 -17.3895
2220 1 3.04943 -9.38517 -20.2691
1977 1 4.77841 -7.06142 -17.4164
2761 1 4.78779 -7.0736 -20.3112
2764 1 5.55323 -9.42653 -18.845
2765 1 7.28201 -7.0888 -18.8618
2769 1 8.04897 -9.44327 -17.3942
3739 1 8.04483 -9.45208 -20.2571
2770 1 9.76674 -7.09595 -17.401
3740 1 9.76766 -7.09662 -20.2655
3745 1 10.5353 -9.45853 -18.7992
3746 1 12.2512 -7.09686 -18.7992
3752 1 13.0183 -9.45832 -17.3323
3753 1 14.7278 -7.0934 -17.3257
3825 1 -16.0845 -2.91812 -17.3257
3826 1 -16.0634 -5.83164 -17.305
2827 1 -12.0624 -2.90869 -17.3942
2828 1 -12.0315 -5.81417 -17.3727
3813 1 -12.0642 -2.91826 -20.2571
3814 1 -12.0345 -5.82929 -20.2289
3819 1 -14.067 -4.37602 -18.7846
1546 1 -7.97929 -5.79729 -17.3895
2021 1 -8.01642 -2.90413 -17.4164
2204 1 -7.98351 -5.80036 -20.2691
2819 1 -8.03117 -2.90847 -20.3112
2823 1 -10.0334 -4.36212 -18.845
1034 1 -3.98198 -2.89307 -17.4247
1542 1 -3.98422 -2.89471 -20.3158
1544 1 -5.98184 -4.34606 -18.8558
1996 1 -3.23943 -5.2699 -18.8768
1371 1 -1.23497 -3.80086 -17.4321
1995 1 -1.23727 -3.80792 -20.3282
1997 1 -0.476816 -6.16753 -18.8768
1044 1 0.758809 -2.33537 -18.8773
1046 1 1.52098 -4.68109 -17.4247
1556 1 1.52184 -4.68374 -20.3158
1356 1 3.23321 -2.34906 -17.4321
1974 1 3.23921 -2.35342 -20.3282
1975 1 4.01093 -4.70937 -18.8768
1976 1 5.71832 -2.35935 -18.8768
1978 1 6.49654 -4.72001 -17.4241
2762 1 6.50984 -4.72967 -20.3214
1979 1 8.19242 -2.36244 -17.4164
2763 1 8.2069 -2.3676 -20.3112
2766 1 8.99212 -4.73504 -18.8618
2767 1 10.6812 -2.36847 -18.845
2771 1 11.4683 -4.7369 -17.3942
3741 1 11.4755 -4.73023 -20.2571
2772 1 13.1512 -2.36818 -17.3727
3742 1 13.1625 -2.35769 -20.2289
3747 1 13.9526 -4.72812 -18.7846
3748 1 15.6351 -2.35582 -18.7515
3754 1 16.4233 -4.72391 -17.305
3755 1 18.1013 -2.35292 -17.2657
3824 1 -16.0915 1.045e-06 -17.3323
2826 1 -12.0724 8.48445e-07 -17.401
3812 1 -12.0735 8.48185e-07 -20.2655
3817 1 -14.0829 1.45959 -18.7992
3818 1 -14.0829 -1.45959 -18.7992
2020 1 -8.03016 6.50849e-07 -17.4241
2818 1 -8.0466 6.5132e-07 -20.3214
2821 1 -10.058 1.45471 -18.8618
2822 1 -10.058 -1.45471 -18.8618
1386 1 -3.99646 4.53724e-07 -17.4321
2016 1 -4.00388 4.53773e-07 -20.3282
2017 1 -6.01301 1.45239 -18.8768
2018 1 -6.01301 -1.45239 -18.8768
935 1 8.38894e-08 2.58185e-07 -20.3208
573 1 8.39832e-08 2.58474e-07 -17.4293
1020 1 -1.98659 1.44334 -18.8773
1032 1 -1.98659 -1.44334 -18.8773
996 1 2.45556 1.38364e-07 -18.8773
998 1 4.92199 1.80215e-08 -17.4247
1500 1 4.92477 1.76274e-08 -20.3158
1502 1 7.39396 -1.02842e-07 -18.8558
1504 1 9.86294 -2.23314e-07 -17.3895
2156 1 9.86816 -2.23783e-07 -20.2691
2158 1 12.3394 -3.44367e-07 -18.7985
2160 1 14.8073 -4.64795e-07 -17.3227
2982 1 14.8038 -4.64802e-07 -20.1482
2984 1 17.2755 -5.85415e-07 -18.6667
2986 1 19.7408 -7.05736e-07 -17.1737
3823 1 -16.0845 2.91812 -17.3257
3822 1 -16.0634 5.83165 -17.305
2824 1 -12.0315 5.81417 -17.3727
2825 1 -12.0624 2.9087 -17.3942
3810 1 -12.0345 5.82929 -20.2289
3811 1 -12.0642 2.91826 -20.2571
3816 1 -14.067 4.37603 -18.7846
1532 1 -7.97929 5.79729 -17.3895
2019 1 -8.01642 2.90413 -17.4164
2188 1 -7.9835 5.80036 -20.2691
2817 1 -8.03116 2.90847 -20.3112
2820 1 -10.0334 4.36212 -18.845
1022 1 -3.98198 2.89308 -17.4247
1528 1 -3.98422 2.89471 -20.3158
1530 1 -5.98184 4.34606 -18.8558
2039 1 -3.23943 5.2699 -18.8768
1401 1 -1.23497 3.80086 -17.4321
2037 1 -1.23727 3.80792 -20.3282
2038 1 -0.476815 6.16753 -18.8768
1008 1 0.758809 2.33537 -18.8773
1010 1 1.52098 4.68109 -17.4247
1514 1 1.52184 4.68374 -20.3158
1341 1 3.23321 2.34906 -17.4321
1953 1 3.23921 2.35342 -20.3282
1955 1 4.01093 4.70937 -18.8768
1954 1 5.71832 2.35935 -18.8768
1957 1 6.49654 4.72001 -17.4241
2734 1 6.50984 4.72967 -20.3214
1956 1 8.19242 2.36244 -17.4164
2733 1 8.2069 2.3676 -20.3112
2736 1 10.6812 2.36847 -18.845
2737 1 8.99212 4.73504 -18.8618
2741 1 11.4683 4.7369 -17.3942
3703 1 11.4755 4.73023 -20.2571
2740 1 13.1512 2.36818 -17.3727
3702 1 13.1625 2.35769 -20.2289
3707 1 15.6351 2.35582 -18.7515
3708 1 13.9526 4.72812 -18.7846
3714 1 16.4233 4.72391 -17.305
3713 1 18.1013 2.35292 -17.2657
3821 1 -16.0273 8.73612 -17.2657
3020 1 -13.9762 10.1543 -18.6667
3815 1 -14.0338 7.28419 -18.7515
2192 1 -11.9793 8.70351 -17.3227
3018 1 -11.9765 8.70146 -20.1482
2190 1 -9.98277 7.25291 -18.7985
2856 1 -9.24755 9.64596 -17.3727
3850 1 -9.26284 9.64411 -20.2289
2851 1 -7.24912 8.19439 -18.845
2042 1 -5.2392 6.72664 -17.4164
2847 1 -5.24788 6.73933 -20.3112
2850 1 -4.49159 9.11616 -18.8618
2855 1 -6.49381 10.5732 -17.3942
3849 1 -6.50347 10.5719 -20.2571
2041 1 -2.48146 7.63714 -17.4241
2846 1 -2.48654 7.65277 -20.3214
2849 1 -1.72457 10.0152 -18.8618
1516 1 2.28486 7.03207 -18.8558
2040 1 0.284785 8.52149 -17.4164
2845 1 0.284353 8.53686 -20.3112
1518 1 3.04782 9.38021 -17.3895
2172 1 3.04943 9.38517 -20.2691
1958 1 4.77841 7.06142 -17.4164
2735 1 4.78779 7.0736 -20.3112
2739 1 5.55323 9.42653 -18.845
2738 1 7.28201 7.0888 -18.8618
2743 1 8.04897 9.44327 -17.3942
3705 1 8.04483 9.45208 -20.2571
2742 1 9.76674 7.09595 -17.401
3704 1 9.76766 7.09662 -20.2655
3710 1 10.5353 9.45853 -18.7992
3709 1 12.2512 7.09686 -18.7992
3715 1 14.7278 7.0934 -17.3257
3716 1 13.0183 9.45832 -17.3323
3022 1 -15.9707 11.6034 -17.1737
3863 1 -13.2612 12.5432 -17.2657
3856 1 -11.2644 11.096 -18.7515
3855 1 -8.5088 12.0263 -18.7846
3862 1 -10.5101 13.4751 -17.305
3861 1 -7.74567 14.3955 -17.3257
3854 1 -5.73999 12.9425 -18.7992
2854 1 -3.73056 11.4815 -17.401
3848 1 -3.73091 11.4826 -20.2655
3853 1 -2.96368 13.8446 -18.7992
2853 1 -0.961143 12.3708 -17.3942
3847 1 -0.952609 12.3755 -20.2571
3852 1 -0.185104 14.7308 -18.7846
2848 1 1.04812 10.8903 -18.845
2852 1 1.81167 13.2393 -17.3727
3846 1 1.82513 13.2468 -20.2289
2174 1 3.81308 11.7354 -18.7985
2176 1 4.5757 14.0826 -17.3227
2744 1 6.31621 11.7757 -17.3727
3000 1 4.57463 14.0793 -20.1482
3706 1 6.30972 11.7897 -20.2289
3712 1 7.07204 14.1419 -18.7515
3711 1 8.80831 11.8087 -18.7846
3717 1 11.2974 11.815 -17.3257
3718 1 9.56778 14.1597 -17.305
3860 1 -4.97253 15.3039 -17.3323
3859 1 -2.19507 16.199 -17.3257
3858 1 0.582373 17.0792 -17.305
3851 1 2.591 15.5979 -18.7515
3857 1 3.35585 17.9424 -17.2657
3002 1 5.33842 16.43 -18.6667
3004 1 6.10026 18.7747 -17.1737
3719 1 7.83136 16.4883 -17.2657
3037 1 -3.40692 -19.9252 -14.3407
3039 1 -0.632948 -20.8107 -14.3218
2211 1 1.33585 -19.3729 -12.9218
3041 1 2.13386 -21.6816 -14.2855
3798 1 1.3504 -19.4155 -15.8131
2213 1 4.09299 -20.2158 -12.8779
3799 1 4.11896 -20.2727 -15.762
3043 1 4.88609 -22.5329 -14.2166
2068 1 6.82836 -21.0155 -12.7878
2880 1 7.57491 -23.3132 -14.0773
3060 1 6.85637 -21.1017 -15.6558
3045 1 9.29156 -21.1015 -14.2166
3027 1 -17.1974 -15.3575 -14.2166
3029 1 -14.4704 -16.2865 -14.2855
2201 1 -12.4678 -14.8878 -12.9218
3793 1 -12.5047 -14.9138 -15.8131
3031 1 -11.7202 -17.2082 -14.3218
2203 1 -9.72134 -15.811 -12.9459
3033 1 -8.95548 -18.1224 -14.3407
3794 1 -9.74586 -15.837 -15.841
2205 1 -6.96222 -16.722 -12.957
3795 1 -6.97653 -16.7499 -15.8539
2207 1 -4.19637 -17.6206 -12.957
2810 1 -4.97006 -15.2963 -14.459
3035 1 -6.18272 -19.0284 -14.3467
3796 1 -4.20123 -17.6517 -15.8539
2811 1 -2.2027 -16.1868 -14.4532
2209 1 -1.42873 -18.5054 -12.9459
3797 1 -1.4242 -18.5409 -15.841
2812 1 0.565965 -17.0601 -14.4351
2015 1 2.56534 -15.5504 -12.9901
2806 1 2.57403 -15.5817 -15.8933
2813 1 3.33381 -17.9139 -14.4025
1566 1 5.32686 -16.3944 -12.949
2226 1 5.3361 -16.4228 -15.839
2228 1 6.0917 -18.7483 -14.3395
2779 1 7.83241 -16.4522 -14.4025
2215 1 8.57125 -18.7607 -12.8779
2217 1 10.3064 -16.4582 -12.9218
3047 1 11.0178 -18.795 -14.2855
3756 1 8.5837 -18.822 -15.762
3757 1 10.3197 -16.5013 -15.8131
3049 1 12.7443 -16.4642 -14.3218
2067 1 -17.8769 -12.9883 -12.7878
2879 1 -19.8314 -14.4083 -14.0773
3025 1 -19.9202 -11.61 -14.2166
3042 1 -17.9502 -13.0416 -15.6558
2212 1 -15.9483 -11.5871 -14.3395
2199 1 -15.1938 -13.9491 -12.8779
2807 1 -13.2266 -12.5331 -14.4025
3792 1 -15.2483 -13.9799 -15.762
2010 1 -11.2157 -11.0726 -12.9901
2801 1 -11.2411 -11.0929 -15.8933
2011 1 -8.47406 -12.0052 -13.012
2802 1 -8.49219 -12.0245 -15.9194
2808 1 -10.4856 -13.4693 -14.4351
2809 1 -7.73237 -14.3901 -14.4532
2012 1 -5.72297 -12.92 -13.0221
2803 1 -5.73337 -12.9397 -15.9317
2007 1 -3.7239 -11.461 -14.4964
2013 1 -2.96423 -13.8164 -13.0221
2804 1 -2.96737 -13.8384 -15.9317
2008 1 -0.960935 -12.3478 -14.491
2014 1 -0.200842 -14.6934 -13.012
2805 1 -0.197496 -14.7196 -15.9194
1380 1 1.04514 -10.8533 -13.0459
2004 1 1.04633 -10.8708 -15.9487
2009 1 1.80678 -13.2144 -14.4739
1052 1 3.80581 -11.7131 -13.0221
1562 1 3.80995 -11.7258 -15.9176
1564 1 4.57023 -14.0657 -14.4389
1984 1 6.30552 -11.7527 -14.4739
1989 1 7.06488 -14.0884 -12.9901
2773 1 7.07624 -14.1188 -15.8933
1990 1 8.79903 -11.7691 -13.012
2774 1 8.81174 -11.7923 -15.9194
2780 1 9.56982 -14.1346 -14.4351
2781 1 11.2964 -11.8007 -14.4532
2219 1 12.0331 -14.1314 -12.9459
3758 1 12.0503 -14.1628 -15.841
2221 1 13.7521 -11.7888 -12.957
3051 1 14.468 -14.1173 -14.3407
3759 1 13.7743 -11.8111 -15.8539
3053 1 16.1866 -11.7602 -14.3467
2195 1 -18.0119 -7.25702 -12.9218
2197 1 -17.9616 -10.1397 -12.8779
3023 1 -19.961 -8.7294 -14.2855
3834 1 -18.048 -7.28404 -15.8131
3835 1 -18.0077 -10.182 -15.762
2841 1 -16.0069 -8.70634 -14.4025
1552 1 -13.9459 -10.1323 -12.949
2036 1 -13.9966 -7.24511 -12.9901
2210 1 -13.9701 -10.1499 -15.839
2834 1 -14.0236 -7.26305 -15.8933
1550 1 -11.965 -8.6931 -14.4389
1040 1 -9.96375 -7.23909 -13.0221
1548 1 -9.97459 -7.24697 -15.9176
2005 1 -9.22895 -9.62869 -14.4739
1377 1 -7.22492 -8.16615 -13.0459
2001 1 -7.23621 -8.17966 -15.9487
1374 1 -5.23183 -6.71487 -14.5158
1378 1 -4.47515 -9.08297 -13.0561
2002 1 -4.48279 -9.0985 -15.9616
2006 1 -6.48042 -10.5544 -14.491
1375 1 -2.47688 -7.62304 -14.5216
1379 1 -1.71837 -9.97871 -13.0561
2003 1 -1.72132 -9.99576 -15.9616
668 1 2.28157 -7.02195 -13.0646
1048 1 2.28336 -7.02747 -15.9639
1376 1 0.285742 -8.50764 -14.5158
1050 1 3.04528 -9.37241 -14.4962
1359 1 4.76949 -7.05078 -14.5158
1362 1 5.53385 -9.39479 -13.0459
1980 1 5.54321 -9.4097 -15.9487
1363 1 7.25553 -7.06291 -13.0561
1981 1 7.26794 -7.07497 -15.9616
1985 1 8.03524 -9.42472 -14.491
1986 1 9.74929 -7.08328 -14.4964
1991 1 10.5192 -9.43538 -13.0221
2775 1 10.5347 -9.45134 -15.9317
1992 1 12.2242 -7.08865 -13.0221
2776 1 12.2442 -7.09844 -15.9317
2223 1 15.4615 -9.43606 -12.957
2782 1 13.0118 -9.45361 -14.459
2783 1 14.7139 -7.0969 -14.4532
3760 1 15.4895 -9.45027 -15.8539
2225 1 17.1582 -7.07729 -12.9459
3055 1 17.8972 -9.3974 -14.3407
3057 1 19.5965 -7.03283 -14.3218
3761 1 17.1933 -7.08395 -15.841
2193 1 -18.0412 -4.35968 -12.9459
3019 1 -20.0028 -2.91705 -14.3407
3021 1 -19.9877 -5.82889 -14.3218
3833 1 -18.0735 -4.37495 -15.841
2839 1 -16.0753 -2.90712 -14.4532
2840 1 -16.0503 -5.81014 -14.4351
2029 1 -12.0404 -2.90176 -14.491
2035 1 -14.0363 -4.34949 -13.012
2833 1 -14.0602 -4.36078 -15.9194
2030 1 -12.0093 -5.80182 -14.4739
1038 1 -7.97265 -5.79247 -14.4962
1391 1 -8.00294 -2.90076 -14.5158
1395 1 -9.99909 -4.34783 -13.0459
2025 1 -10.0154 -4.35439 -15.9487
656 1 -3.97927 -2.89111 -14.527
658 1 -5.97323 -4.3398 -13.0646
1036 1 -5.97793 -4.34322 -15.9639
895 1 -3.2309 -5.25198 -13.0756
1372 1 -3.23496 -5.26014 -15.9782
894 1 -1.23312 -3.79516 -14.5323
896 1 -0.473183 -6.14802 -13.0756
1373 1 -0.474695 -6.157 -15.9782
664 1 0.758296 -2.3338 -15.9817
394 1 0.757748 -2.33211 -13.0816
666 1 1.51995 -4.67791 -14.527
884 1 3.22836 -2.34554 -14.5323
885 1 3.99653 -4.69572 -13.0756
1357 1 4.00303 -4.7021 -15.9782
886 1 5.70089 -2.34987 -13.0756
1358 1 5.70897 -2.35408 -15.9782
1360 1 6.48455 -4.7113 -14.5216
1361 1 8.17954 -2.35725 -14.5158
1364 1 8.95931 -4.71786 -13.0561
1365 1 10.645 -2.35985 -13.0459
1982 1 8.97462 -4.72593 -15.9616
1983 1 10.6621 -2.36415 -15.9487
1987 1 11.4465 -4.72957 -14.491
1988 1 13.126 -2.36513 -14.4739
1993 1 13.9122 -4.73151 -13.012
1994 1 15.582 -2.36555 -12.9901
2777 1 13.9381 -4.73644 -15.9194
2778 1 15.6145 -2.36695 -15.8933
2784 1 16.4001 -4.73361 -14.4351
2227 1 18.8375 -4.71609 -12.9218
2785 1 18.0673 -2.36506 -14.4025
3762 1 18.8826 -4.71543 -15.8131
2229 1 20.4912 -2.35436 -12.8779
3059 1 21.2798 -4.67055 -14.2855
3061 1 22.9399 -2.31609 -14.2166
3763 1 20.5533 -2.34726 -15.762
2189 1 -18.055 1.45409 -12.957
2191 1 -18.055 -1.45409 -12.957
2838 1 -16.0834 1.04491e-06 -14.459
3017 1 -20.0077 1.23679e-06 -14.3467
3831 1 -18.086 1.45906 -15.8539
3832 1 -18.086 -1.45906 -15.8539
2028 1 -12.0508 8.47742e-07 -14.4964
2033 1 -14.0562 1.45036 -13.0221
2034 1 -14.0562 -1.45036 -13.0221
2831 1 -14.0781 1.45417 -15.9317
2832 1 -14.0781 -1.45417 -15.9317
1390 1 -8.01534 6.50466e-07 -14.5216
1393 1 -10.0213 1.44932 -13.0561
1394 1 -10.0213 -1.44932 -13.0561
2023 1 -10.0384 1.45179 -15.9616
2024 1 -10.0384 -1.45179 -15.9616
904 1 -3.99047 4.53768e-07 -14.5323
905 1 -5.99334 1.44982 -13.0756
906 1 -5.99334 -1.44982 -13.0756
1387 1 -6.00235 1.45116 -15.9782
1388 1 -6.00235 -1.45116 -15.9782
644 1 -1.98524 1.44237 -15.9817
654 1 -1.98524 -1.44236 -15.9817
321 1 8.40836e-08 2.58782e-07 -14.5322
378 1 -1.98381 1.44132 -13.0816
386 1 -1.98381 -1.44132 -13.0816
624 1 2.4539 1.38728e-07 -15.9817
362 1 2.45212 1.39095e-07 -13.0816
626 1 4.91865 1.84468e-08 -14.527
628 1 7.38331 -1.01849e-07 -13.0646
1000 1 7.38912 -1.02363e-07 -15.9639
1002 1 9.85474 -2.22699e-07 -14.4962
1004 1 12.3159 -3.42836e-07 -13.0221
1506 1 12.3293 -3.43679e-07 -15.9176
1508 1 14.7896 -4.63756e-07 -14.4389
1510 1 17.2381 -5.83277e-07 -12.949
2162 1 17.268 -5.84888e-07 -15.839
2164 1 19.7132 -7.04244e-07 -14.3395
2064 1 22.097 -8.20617e-07 -12.7878
2876 1 24.5129 -9.38696e-07 -14.0773
2988 1 22.1877 -8.25167e-07 -15.6558
2187 1 -18.0412 4.35968 -12.9459
3013 1 -19.9877 5.82889 -14.3218
3015 1 -20.0028 2.91705 -14.3407
3830 1 -18.0735 4.37496 -15.841
2836 1 -16.0503 5.81014 -14.4351
2837 1 -16.0753 2.90712 -14.4532
2027 1 -12.0404 2.90176 -14.491
2032 1 -14.0363 4.34949 -13.012
2830 1 -14.0602 4.36078 -15.9194
2026 1 -12.0093 5.80183 -14.4739
1026 1 -7.97265 5.79247 -14.4962
1389 1 -8.00294 2.90076 -14.5158
1392 1 -9.99909 4.34783 -13.0459
2022 1 -10.0154 4.35439 -15.9487
646 1 -3.97927 2.89111 -14.527
648 1 -5.97323 4.3398 -13.0646
1024 1 -5.97793 4.34322 -15.9639
916 1 -3.2309 5.25198 -13.0756
1403 1 -3.23496 5.26014 -15.9782
914 1 -1.23312 3.79516 -14.5323
915 1 -0.473183 6.14802 -13.0756
1402 1 -0.474694 6.157 -15.9782
634 1 0.758296 2.3338 -15.9817
370 1 0.757748 2.33211 -13.0816
636 1 1.51995 4.67791 -14.527
874 1 3.22836 2.34554 -14.5323
876 1 3.99653 4.69572 -13.0756
1343 1 4.00303 4.7021 -15.9782
875 1 5.70089 2.34987 -13.0756
1342 1 5.70897 2.35408 -15.9782
1345 1 6.48455 4.7113 -14.5216
1344 1 8.17954 2.35725 -14.5158
1347 1 10.645 2.35985 -13.0459
1348 1 8.95931 4.71786 -13.0561
1959 1 10.6621 2.36415 -15.9487
1960 1 8.97462 4.72593 -15.9616
1964 1 11.4465 4.72957 -14.491
1963 1 13.126 2.36513 -14.4739
1968 1 15.582 2.36555 -12.9901
1969 1 13.9122 4.73151 -13.012
2745 1 15.6145 2.36695 -15.8933
2746 1 13.9381 4.73644 -15.9194
2752 1 16.4001 4.73361 -14.4351
2153 1 18.8375 4.71609 -12.9218
2751 1 18.0673 2.36505 -14.4025
3721 1 18.8826 4.71543 -15.8131
2151 1 20.4912 2.35436 -12.8779
2973 1 22.9399 2.31609 -14.2166
2975 1 21.2798 4.67055 -14.2855
3720 1 20.5533 2.34725 -15.762
2183 1 -17.9616 10.1397 -12.8779
2185 1 -18.0119 7.25703 -12.9218
3011 1 -19.961 8.7294 -14.2855
3828 1 -18.0077 10.182 -15.762
3829 1 -18.048 7.28404 -15.8131
2835 1 -16.0069 8.70634 -14.4025
1538 1 -13.9459 10.1323 -12.949
2031 1 -13.9965 7.24511 -12.9901
2194 1 -13.9701 10.1499 -15.839
2829 1 -14.0236 7.26305 -15.8933
1536 1 -11.965 8.6931 -14.4389
1028 1 -9.96375 7.23909 -13.0221
1534 1 -9.97459 7.24697 -15.9176
2051 1 -9.22895 9.62869 -14.4739
1410 1 -7.22492 8.16615 -13.0459
2046 1 -7.23621 8.17966 -15.9487
1406 1 -5.23183 6.71487 -14.5158
1409 1 -4.47515 9.08297 -13.0561
2045 1 -4.48278 9.09851 -15.9616
2050 1 -6.48042 10.5544 -14.491
1405 1 -2.47688 7.62304 -14.5216
1408 1 -1.71837 9.97871 -13.0561
2044 1 -1.72132 9.99576 -15.9616
638 1 2.28157 7.02195 -13.0646
1012 1 2.28337 7.02748 -15.9639
1404 1 0.285743 8.50764 -14.5158
1014 1 3.04528 9.37241 -14.4962
1346 1 4.76949 7.05078 -14.5158
1350 1 5.53385 9.39479 -13.0459
1962 1 5.54321 9.4097 -15.9487
1349 1 7.25553 7.06291 -13.0561
1961 1 7.26794 7.07497 -15.9616
1966 1 8.03524 9.42472 -14.491
1965 1 9.74929 7.08328 -14.4964
1971 1 10.5192 9.43538 -13.0221
2748 1 10.5347 9.45134 -15.9317
1970 1 12.2242 7.08865 -13.0221
2747 1 12.2442 7.09844 -15.9317
2157 1 15.4615 9.43606 -12.957
2753 1 14.7139 7.0969 -14.4532
2754 1 13.0118 9.45361 -14.459
3723 1 15.4895 9.45027 -15.8539
2155 1 17.1582 7.07729 -12.9459
2977 1 19.5965 7.03282 -14.3218
2979 1 17.8972 9.3974 -14.3407
3722 1 17.1933 7.08395 -15.841
2066 1 -17.8769 12.9883 -12.7878
2878 1 -19.8314 14.4083 -14.0773
3009 1 -19.9202 11.61 -14.2166
3024 1 -17.9502 13.0416 -15.6558
2196 1 -15.9483 11.5871 -14.3395
2181 1 -15.1938 13.9491 -12.8779
2869 1 -13.2266 12.5331 -14.4025
3871 1 -15.2483 13.9799 -15.762
2057 1 -11.2157 11.0726 -12.9901
2862 1 -11.2411 11.0929 -15.8933
2056 1 -8.47406 12.0052 -13.012
2861 1 -8.49219 12.0245 -15.9194
2868 1 -10.4856 13.4693 -14.4351
2867 1 -7.73237 14.3901 -14.4532
2055 1 -5.72297 12.92 -13.0221
2860 1 -5.73337 12.9397 -15.9317
2049 1 -3.7239 11.461 -14.4964
2054 1 -2.96423 13.8164 -13.0221
2859 1 -2.96737 13.8384 -15.9317
2048 1 -0.960934 12.3478 -14.491
2053 1 -0.20084 14.6934 -13.012
2858 1 -0.197495 14.7196 -15.9194
1407 1 1.04514 10.8533 -13.0459
2043 1 1.04633 10.8708 -15.9487
2047 1 1.80678 13.2144 -14.4739
1016 1 3.80582 11.7131 -13.0221
1520 1 3.80996 11.7258 -15.9176
1522 1 4.57023 14.0657 -14.4389
1967 1 6.30552 11.7527 -14.4739
1973 1 7.06488 14.0884 -12.9901
2750 1 7.07624 14.1188 -15.8933
1972 1 8.79903 11.7691 -13.012
2749 1 8.81174 11.7923 -15.9194
2755 1 11.2964 11.8007 -14.4532
2756 1 9.56983 14.1346 -14.4351
2161 1 12.0331 14.1314 -12.9459
3725 1 12.0503 14.1628 -15.841
2159 1 13.7521 11.7888 -12.957
2983 1 14.468 14.1173 -14.3407
3724 1 13.7743 11.8111 -15.8539
2981 1 16.1866 11.7602 -14.3467
3007 1 -17.1974 15.3575 -14.2166
2179 1 -12.4678 14.8878 -12.9218
3870 1 -12.5047 14.9138 -15.8131
3005 1 -14.4704 16.2865 -14.2855
3003 1 -11.7201 17.2082 -14.3218
2177 1 -9.72134 15.811 -12.9459
3001 1 -8.95548 18.1224 -14.3407
3869 1 -9.74586 15.837 -15.841
2175 1 -6.96222 16.722 -12.957
3868 1 -6.97653 16.7499 -15.8539
2173 1 -4.19637 17.6206 -12.957
2866 1 -4.97005 15.2963 -14.459
2999 1 -6.18272 19.0284 -14.3467
3867 1 -4.20122 17.6517 -15.8539
2865 1 -2.2027 16.1868 -14.4532
2171 1 -1.42873 18.5054 -12.9459
3866 1 -1.4242 18.5409 -15.841
2864 1 0.565966 17.0601 -14.4351
2052 1 2.56534 15.5504 -12.9901
2857 1 2.57403 15.5817 -15.8933
2863 1 3.33381 17.9139 -14.4025
1524 1 5.32686 16.3944 -12.949
2178 1 5.3361 16.4228 -15.839
2180 1 6.0917 18.7483 -14.3395
2757 1 7.83241 16.4522 -14.4025
2163 1 10.3064 16.4582 -12.9218
2165 1 8.57125 18.7607 -12.8779
2987 1 11.0178 18.795 -14.2855
3726 1 10.3197 16.5012 -15.8131
3727 1 8.5837 18.822 -15.762
2985 1 12.7443 16.4642 -14.3218
2997 1 -3.40692 19.9252 -14.3407
2995 1 -0.632946 20.8107 -14.3218
2169 1 1.33585 19.3729 -12.9218
2993 1 2.13387 21.6816 -14.2855
3865 1 1.3504 19.4155 -15.8131
2167 1 4.09299 20.2158 -12.8779
3864 1 4.11896 20.2727 -15.762
2991 1 4.88609 22.5329 -14.2166
2065 1 6.82836 21.0155 -12.7878
2877 1 7.57491 23.3132 -14.0773
3006 1 6.85637 21.1017 -15.6558
2989 1 9.29156 21.1015 -14.2166
3312 1 -6.21468 -19.1268 -8.65285
3321 1 -3.4417 -20.021 -8.6485
3322 1 -3.4338 -19.994 -11.5192
3330 1 -0.667842 -20.9011 -8.63478
3331 1 -0.661894 -20.8763 -11.502
2453 1 1.32099 -19.4088 -10.054
3339 1 2.10385 -21.7628 -8.609
3340 1 2.1067 -21.7423 -11.4694
2461 1 4.08284 -20.2468 -10.0176
3348 1 4.87076 -22.5967 -8.56551
3349 1 4.86923 -22.5839 -11.4099
2269 1 6.83459 -21.0347 -9.95038
3105 1 7.58379 -23.3405 -8.50149
3106 1 7.58113 -23.3323 -11.3087
3195 1 9.34147 -21.1441 -8.56551
3196 1 9.33518 -21.1328 -11.4099
3276 1 -17.2225 -15.4181 -8.56551
3277 1 -17.2138 -15.4087 -11.4099
3285 1 -14.4939 -16.3699 -8.609
3286 1 -14.4842 -16.3516 -11.4694
2413 1 -12.4769 -14.9256 -10.054
3294 1 -11.7451 -17.3019 -8.63478
3295 1 -11.7353 -17.2784 -11.502
2421 1 -9.732 -15.8525 -10.0741
3303 1 -8.98369 -18.2203 -8.6485
3304 1 -8.9742 -18.1939 -11.5192
2429 1 -6.97503 -16.7647 -10.0833
1547 1 -4.96288 -15.2742 -11.5372
1728 1 -4.96992 -15.2958 -8.65039
2437 1 -4.21111 -17.6627 -10.0833
3313 1 -6.20574 -19.0993 -11.5246
1549 1 -2.20145 -16.162 -11.5325
1735 1 -2.20962 -16.1826 -8.64672
2445 1 -1.44451 -18.5453 -10.0741
1551 1 0.561236 -17.0304 -11.5176
1742 1 0.553206 -17.0489 -8.63488
1043 1 2.55968 -15.5279 -10.0818
1553 1 3.32231 -17.8757 -11.4891
1749 1 3.31695 -17.8915 -8.61168
934 1 5.31739 -16.3652 -10.0431
1426 1 6.07508 -18.6972 -11.4304
1602 1 6.07881 -18.7087 -8.56763
1555 1 7.81928 -16.4146 -11.4891
1658 1 7.8329 -16.4242 -8.61168
2341 1 8.59767 -18.7798 -10.0176
2349 1 10.3395 -16.4785 -10.054
3204 1 11.0898 -18.8431 -8.609
3205 1 11.0755 -18.8282 -11.4694
3213 1 12.8257 -16.5168 -8.63478
3214 1 12.8063 -16.5003 -11.502
2261 1 -17.8932 -13.0002 -9.95038
3096 1 -19.8546 -14.4252 -8.50149
3097 1 -19.8476 -14.4202 -11.3087
3429 1 -19.9856 -11.6151 -8.56551
3430 1 -19.9739 -11.6097 -11.4099
1425 1 -15.9048 -11.5555 -11.4304
1595 1 -15.9145 -11.5626 -8.56763
1541 1 -13.1949 -12.509 -11.4891
1707 1 -13.1998 -12.5249 -8.61168
2405 1 -15.2038 -13.9802 -10.0176
1033 1 -11.1979 -11.0578 -10.0818
1035 1 -8.46221 -11.9918 -10.1006
1543 1 -10.4642 -13.448 -11.5176
1714 1 -10.4686 -13.4677 -8.63488
1545 1 -7.71878 -14.3693 -11.5325
1721 1 -7.72425 -14.3907 -8.64672
1037 1 -5.71608 -12.9064 -10.109
659 1 -3.71561 -11.4355 -8.67791
1039 1 -2.96178 -13.8013 -10.109
1383 1 -3.71856 -11.4445 -11.5871
661 1 -0.960939 -12.3185 -8.67434
1041 1 -0.20251 -14.6755 -10.1006
1384 1 -0.960673 -12.3291 -11.5827
663 1 1.79979 -13.1802 -8.66235
903 1 1.04343 -10.8393 -10.1395
1385 1 1.80291 -13.1932 -11.5685
672 1 3.8015 -11.6998 -10.1193
572 1 4.55831 -14.029 -8.63604
665 1 6.29106 -11.7209 -8.66235
1054 1 4.56378 -14.0459 -11.5398
1366 1 6.29617 -11.7332 -11.5685
1045 1 7.05626 -14.0669 -10.0818
1047 1 8.78987 -11.7537 -10.1006
1557 1 9.55614 -14.1077 -11.5176
1559 1 11.2808 -11.7814 -11.5325
1665 1 9.57353 -14.118 -8.63488
1672 1 11.2995 -11.7932 -8.64672
2357 1 12.0693 -14.1544 -10.0741
2365 1 13.7887 -11.8142 -10.0833
3222 1 14.5525 -14.1744 -8.6485
3223 1 14.5302 -14.1572 -11.5192
3231 1 16.2702 -11.821 -8.65285
3232 1 16.2468 -11.804 -11.5246
2517 1 -18.0507 -7.25399 -10.054
2525 1 -17.9942 -10.1396 -10.0176
3420 1 -20.0476 -8.72596 -8.609
3421 1 -20.0272 -8.72233 -11.4694
1539 1 -15.9742 -8.68361 -11.4891
1798 1 -15.9909 -8.68339 -8.61168
933 1 -13.9211 -10.1143 -10.0431
1031 1 -13.9769 -7.23279 -10.0818
571 1 -11.9338 -8.67042 -8.63604
1042 1 -11.9481 -8.68082 -11.5398
655 1 -9.20318 -9.6051 -8.66235
662 1 -9.95245 -7.23087 -10.1193
1381 1 -9.21333 -9.61377 -11.5685
900 1 -7.21534 -8.15586 -10.1395
547 1 -5.2192 -6.69783 -8.70391
657 1 -6.46322 -10.5307 -8.67434
897 1 -5.22505 -6.70516 -11.611
901 1 -4.46922 -9.07159 -10.1479
1382 1 -6.46965 -10.5391 -11.5827
548 1 -2.47036 -7.60297 -8.70762
898 1 -2.47313 -7.61151 -11.6155
902 1 -1.71647 -9.96601 -10.1479
398 1 2.27953 -7.01568 -10.1605
549 1 0.28554 -8.48643 -8.70391
899 1 0.285962 -8.4958 -11.611
400 1 3.03938 -9.35424 -8.69042