 # 12345.00
 
        3829  atoms
           1  atom types
 
      -17.750000043589      17.750000043589  xlo xhi
      -17.750000043589      17.750000043589  ylo yhi
      -17.750000000000      17.750000000000  zlo zhi
 
Masses
 
            1   107.86820000            # Ag
 
Atoms # atomic
 
         1    1        0.000000000000       0.000000000000       0.000000000000
         2    1        0.000000000000       1.700000000000       1.700000000000
         3    1        1.700000000000       0.000000000000       1.700000000000
         4    1        0.000000000000      -1.700000000000       1.700000000000
         5    1       -1.700000000000       0.000000000000       1.700000000000
         6    1        0.000000000000       1.700000000000      -1.700000000000
         7    1        1.700000000000       0.000000000000      -1.700000000000
         8    1        0.000000000000      -1.700000000000      -1.700000000000
         9    1       -1.700000000000       0.000000000000      -1.700000000000
        10    1        1.700000000000       1.700000000000       0.000000000000
        11    1        1.700000000000      -1.700000000000       0.000000000000
        12    1       -1.700000000000      -1.700000000000       0.000000000000
        13    1       -1.700000000000       1.700000000000       0.000000000000
        14    1        0.000000000000       5.100000000000       5.100000000000
        15    1        5.100000000000       0.000000000000       5.100000000000
        16    1        0.000000000000      -5.100000000000       5.100000000000
        17    1       -5.100000000000       0.000000000000       5.100000000000
        18    1        0.000000000000       5.100000000000      -5.100000000000
        19    1        5.100000000000       0.000000000000      -5.100000000000
        20    1        0.000000000000      -5.100000000000      -5.100000000000
        21    1       -5.100000000000       0.000000000000      -5.100000000000
        22    1        5.100000000000       5.100000000000       0.000000000000
        23    1        5.100000000000      -5.100000000000       0.000000000000
        24    1       -5.100000000000      -5.100000000000       0.000000000000
        25    1       -5.100000000000       5.100000000000       0.000000000000
        26    1        1.700000000000       3.400000000000       5.100000000000
        27    1        1.700000000000       5.100000000000       3.400000000000
        28    1        5.100000000000       1.700000000000       3.400000000000
        29    1        3.400000000000       1.700000000000       5.100000000000
        30    1        3.400000000000       5.100000000000       1.700000000000
        31    1        5.100000000000       3.400000000000       1.700000000000
        32    1        3.400000000000      -1.700000000000       5.100000000000
        33    1        5.100000000000      -1.700000000000       3.400000000000
        34    1        1.700000000000      -5.100000000000       3.400000000000
        35    1        1.700000000000      -3.400000000000       5.100000000000
        36    1        5.100000000000      -3.400000000000       1.700000000000
        37    1        3.400000000000      -5.100000000000       1.700000000000
        38    1       -1.700000000000      -3.400000000000       5.100000000000
        39    1       -1.700000000000      -5.100000000000       3.400000000000
        40    1       -5.100000000000      -1.700000000000       3.400000000000
        41    1       -3.400000000000      -1.700000000000       5.100000000000
        42    1       -3.400000000000      -5.100000000000       1.700000000000
        43    1       -5.100000000000      -3.400000000000       1.700000000000
        44    1       -1.700000000000       3.400000000000       5.100000000000
        45    1       -1.700000000000       5.100000000000       3.400000000000
        46    1       -5.100000000000       1.700000000000       3.400000000000
        47    1       -3.400000000000       1.700000000000       5.100000000000
        48    1       -3.400000000000       5.100000000000       1.700000000000
        49    1       -5.100000000000       3.400000000000       1.700000000000
        50    1        1.700000000000       3.400000000000      -5.100000000000
        51    1        1.700000000000       5.100000000000      -3.400000000000
        52    1        5.100000000000       1.700000000000      -3.400000000000
        53    1        3.400000000000       1.700000000000      -5.100000000000
        54    1        3.400000000000       5.100000000000      -1.700000000000
        55    1        5.100000000000       3.400000000000      -1.700000000000
        56    1        3.400000000000      -1.700000000000      -5.100000000000
        57    1        5.100000000000      -1.700000000000      -3.400000000000
        58    1        1.700000000000      -5.100000000000      -3.400000000000
        59    1        1.700000000000      -3.400000000000      -5.100000000000
        60    1        5.100000000000      -3.400000000000      -1.700000000000
        61    1        3.400000000000      -5.100000000000      -1.700000000000
        62    1       -1.700000000000      -3.400000000000      -5.100000000000
        63    1       -1.700000000000      -5.100000000000      -3.400000000000
        64    1       -5.100000000000      -1.700000000000      -3.400000000000
        65    1       -3.400000000000      -1.700000000000      -5.100000000000
        66    1       -3.400000000000      -5.100000000000      -1.700000000000
        67    1       -5.100000000000      -3.400000000000      -1.700000000000
        68    1       -1.700000000000       3.400000000000      -5.100000000000
        69    1       -1.700000000000       5.100000000000      -3.400000000000
        70    1       -5.100000000000       1.700000000000      -3.400000000000
        71    1       -3.400000000000       1.700000000000      -5.100000000000
        72    1       -3.400000000000       5.100000000000      -1.700000000000
        73    1       -5.100000000000       3.400000000000      -1.700000000000
        74    1       -0.000000000000       1.700000000000       5.100000000000
        75    1       -1.700000000000       0.000000000000       5.100000000000
        76    1        1.700000000000       0.000000000000       5.100000000000
        77    1       -0.000000000000      -1.700000000000       5.100000000000
        78    1       -0.000000000000       1.700000000000      -5.100000000000
        79    1       -1.700000000000       0.000000000000      -5.100000000000
        80    1        1.700000000000       0.000000000000      -5.100000000000
        81    1       -0.000000000000      -1.700000000000      -5.100000000000
        82    1       -0.000000000000       5.099999994551      -1.700000016346
        83    1       -1.700000000000       5.100000000000      -0.000000016346
        84    1        1.700000000000       5.100000000000      -0.000000016346
        85    1       -0.000000000000       5.100000005449       1.699999983654
        86    1       -0.000000000000      -5.100000005449      -1.699999983654
        87    1       -1.700000000000      -5.100000000000       0.000000016346
        88    1        1.700000000000      -5.100000000000       0.000000016346
        89    1       -0.000000000000      -5.099999994551       1.700000016346
        90    1       -5.100000000000       1.700000000000      -0.000000016346
        91    1       -5.099999994551       0.000000000000      -1.700000016346
        92    1       -5.100000005449       0.000000000000       1.699999983654
        93    1       -5.100000000000      -1.700000000000      -0.000000016346
        94    1        5.100000000000       1.700000000000       0.000000016346
        95    1        5.100000005449       0.000000000000      -1.699999983654
        96    1        5.099999994551       0.000000000000       1.700000016346
        97    1        5.100000000000      -1.700000000000       0.000000016346
        98    1        3.400000000000       3.400000000000       3.400000000000
        99    1        3.400000000000      -3.400000000000       3.400000000000
       100    1       -3.400000000000      -3.400000000000       3.400000000000
       101    1       -3.400000000000       3.400000000000       3.400000000000
       102    1        3.400000000000       3.400000000000      -3.400000000000
       103    1        3.400000000000      -3.400000000000      -3.400000000000
       104    1       -3.400000000000      -3.400000000000      -3.400000000000
       105    1       -3.400000000000       3.400000000000      -3.400000000000
       106    1        0.000000000000       6.800000000000       6.800000000000
       107    1        6.800000000000       0.000000000000       6.800000000000
       108    1        0.000000000000      -6.800000000000       6.800000000000
       109    1       -6.800000000000       0.000000000000       6.800000000000
       110    1        0.000000000000       6.800000000000      -6.800000000000
       111    1        6.800000000000       0.000000000000      -6.800000000000
       112    1        0.000000000000      -6.800000000000      -6.800000000000
       113    1       -6.800000000000       0.000000000000      -6.800000000000
       114    1        6.800000000000       6.800000000000       0.000000000000
       115    1        6.800000000000      -6.800000000000       0.000000000000
       116    1       -6.800000000000      -6.800000000000       0.000000000000
       117    1       -6.800000000000       6.800000000000       0.000000000000
       118    1        1.700000000000       5.100000000000       6.800000000000
       119    1        1.700000000000       6.800000000000       5.100000000000
       120    1        6.800000000000       1.700000000000       5.100000000000
       121    1        3.400000000000       3.400000000000       6.800000000000
       122    1        3.400000000000       6.800000000000       3.400000000000
       123    1        6.800000000000       3.400000000000       3.400000000000
       124    1        5.100000000000       1.700000000000       6.800000000000
       125    1        5.100000000000       6.800000000000       1.700000000000
       126    1        6.800000000000       5.100000000000       1.700000000000
       127    1        5.100000000000      -1.700000000000       6.800000000000
       128    1        6.800000000000      -1.700000000000       5.100000000000
       129    1        1.700000000000      -6.800000000000       5.100000000000
       130    1        3.400000000000      -3.400000000000       6.800000000000
       131    1        6.800000000000      -3.400000000000       3.400000000000
       132    1        3.400000000000      -6.800000000000       3.400000000000
       133    1        1.700000000000      -5.100000000000       6.800000000000
       134    1        6.800000000000      -5.100000000000       1.700000000000
       135    1        5.100000000000      -6.800000000000       1.700000000000
       136    1       -1.700000000000      -5.100000000000       6.800000000000
       137    1       -1.700000000000      -6.800000000000       5.100000000000
       138    1       -6.800000000000      -1.700000000000       5.100000000000
       139    1       -3.400000000000      -3.400000000000       6.800000000000
       140    1       -3.400000000000      -6.800000000000       3.400000000000
       141    1       -6.800000000000      -3.400000000000       3.400000000000
       142    1       -5.100000000000      -1.700000000000       6.800000000000
       143    1       -5.100000000000      -6.800000000000       1.700000000000
       144    1       -6.800000000000      -5.100000000000       1.700000000000
       145    1       -1.700000000000       5.100000000000       6.800000000000
       146    1       -1.700000000000       6.800000000000       5.100000000000
       147    1       -6.800000000000       1.700000000000       5.100000000000
       148    1       -3.400000000000       3.400000000000       6.800000000000
       149    1       -3.400000000000       6.800000000000       3.400000000000
       150    1       -6.800000000000       3.400000000000       3.400000000000
       151    1       -5.100000000000       1.700000000000       6.800000000000
       152    1       -5.100000000000       6.800000000000       1.700000000000
       153    1       -6.800000000000       5.100000000000       1.700000000000
       154    1        1.700000000000       5.100000000000      -6.800000000000
       155    1        1.700000000000       6.800000000000      -5.100000000000
       156    1        6.800000000000       1.700000000000      -5.100000000000
       157    1        3.400000000000       3.400000000000      -6.800000000000
       158    1        3.400000000000       6.800000000000      -3.400000000000
       159    1        6.800000000000       3.400000000000      -3.400000000000
       160    1        5.100000000000       1.700000000000      -6.800000000000
       161    1        5.100000000000       6.800000000000      -1.700000000000
       162    1        6.800000000000       5.100000000000      -1.700000000000
       163    1        5.100000000000      -1.700000000000      -6.800000000000
       164    1        6.800000000000      -1.700000000000      -5.100000000000
       165    1        1.700000000000      -6.800000000000      -5.100000000000
       166    1        3.400000000000      -3.400000000000      -6.800000000000
       167    1        6.800000000000      -3.400000000000      -3.400000000000
       168    1        3.400000000000      -6.800000000000      -3.400000000000
       169    1        1.700000000000      -5.100000000000      -6.800000000000
       170    1        6.800000000000      -5.100000000000      -1.700000000000
       171    1        5.100000000000      -6.800000000000      -1.700000000000
       172    1       -1.700000000000      -5.100000000000      -6.800000000000
       173    1       -1.700000000000      -6.800000000000      -5.100000000000
       174    1       -6.800000000000      -1.700000000000      -5.100000000000
       175    1       -3.400000000000      -3.400000000000      -6.800000000000
       176    1       -3.400000000000      -6.800000000000      -3.400000000000
       177    1       -6.800000000000      -3.400000000000      -3.400000000000
       178    1       -5.100000000000      -1.700000000000      -6.800000000000
       179    1       -5.100000000000      -6.800000000000      -1.700000000000
       180    1       -6.800000000000      -5.100000000000      -1.700000000000
       181    1       -1.700000000000       5.100000000000      -6.800000000000
       182    1       -1.700000000000       6.800000000000      -5.100000000000
       183    1       -6.800000000000       1.700000000000      -5.100000000000
       184    1       -3.400000000000       3.400000000000      -6.800000000000
       185    1       -3.400000000000       6.800000000000      -3.400000000000
       186    1       -6.800000000000       3.400000000000      -3.400000000000
       187    1       -5.100000000000       1.700000000000      -6.800000000000
       188    1       -5.100000000000       6.800000000000      -1.700000000000
       189    1       -6.800000000000       5.100000000000      -1.700000000000
       190    1        0.000000000000       3.400000000000       6.800000000000
       191    1       -1.700000000000       1.700000000000       6.800000000000
       192    1       -3.400000000000      -0.000000000000       6.800000000000
       193    1        1.700000000000       1.700000000000       6.800000000000
       194    1        0.000000000000       0.000000000000       6.800000000000
       195    1       -1.700000000000      -1.700000000000       6.800000000000
       196    1        3.400000000000       0.000000000000       6.800000000000
       197    1        1.700000000000      -1.700000000000       6.800000000000
       198    1       -0.000000000000      -3.400000000000       6.800000000000
       199    1        0.000000000000       3.400000000000      -6.800000000000
       200    1       -1.700000000000       1.700000000000      -6.800000000000
       201    1       -3.400000000000      -0.000000000000      -6.800000000000
       202    1        1.700000000000       1.700000000000      -6.800000000000
       203    1        0.000000000000       0.000000000000      -6.800000000000
       204    1       -1.700000000000      -1.700000000000      -6.800000000000
       205    1        3.400000000000       0.000000000000      -6.800000000000
       206    1        1.700000000000      -1.700000000000      -6.800000000000
       207    1       -0.000000000000      -3.400000000000      -6.800000000000
       208    1        0.000000000000       6.799999989103      -3.400000021795
       209    1       -1.700000000000       6.799999994551      -1.700000021795
       210    1       -3.400000000000       6.800000000000      -0.000000021795
       211    1        1.700000000000       6.799999994551      -1.700000021795
       212    1        0.000000000000       6.800000000000      -0.000000021795
       213    1       -1.700000000000       6.800000005449       1.699999978205
       214    1        3.400000000000       6.800000000000      -0.000000021795
       215    1        1.700000000000       6.800000005449       1.699999978205
       216    1       -0.000000000000       6.800000010897       3.399999978205
       217    1        0.000000000000      -6.800000010897      -3.399999978205
       218    1       -1.700000000000      -6.800000005449      -1.699999978205
       219    1       -3.400000000000      -6.800000000000       0.000000021795
       220    1        1.700000000000      -6.800000005449      -1.699999978205
       221    1        0.000000000000      -6.800000000000       0.000000021795
       222    1       -1.700000000000      -6.799999994551       1.700000021795
       223    1        3.400000000000      -6.800000000000       0.000000021795
       224    1        1.700000000000      -6.799999994551       1.700000021795
       225    1       -0.000000000000      -6.799999989103       3.400000021795
       226    1       -6.800000000000       3.400000000000      -0.000000021795
       227    1       -6.799999994551       1.700000000000      -1.700000021795
       228    1       -6.799999989103      -0.000000000000      -3.400000021795
       229    1       -6.800000005449       1.700000000000       1.699999978205
       230    1       -6.800000000000       0.000000000000      -0.000000021795
       231    1       -6.799999994551      -1.700000000000      -1.700000021795
       232    1       -6.800000010897       0.000000000000       3.399999978205
       233    1       -6.800000005449      -1.700000000000       1.699999978205
       234    1       -6.800000000000      -3.400000000000      -0.000000021795
       235    1        6.800000000000       3.400000000000       0.000000021795
       236    1        6.800000005449       1.700000000000      -1.699999978205
       237    1        6.800000010897      -0.000000000000      -3.399999978205
       238    1        6.799999994551       1.700000000000       1.700000021795
       239    1        6.800000000000       0.000000000000       0.000000021795
       240    1        6.800000005449      -1.700000000000      -1.699999978205
       241    1        6.799999989103       0.000000000000       3.400000021795
       242    1        6.799999994551      -1.700000000000       1.700000021795
       243    1        6.800000000000      -3.400000000000       0.000000021795
       244    1        3.400000000000       5.100000000000       5.100000000000
       245    1        5.100000000000       3.400000000000       5.100000000000
       246    1        5.100000000000       5.100000000000       3.400000000000
       247    1        5.100000000000      -3.400000000000       5.100000000000
       248    1        3.400000000000      -5.100000000000       5.100000000000
       249    1        5.100000000000      -5.100000000000       3.400000000000
       250    1       -3.400000000000      -5.100000000000       5.100000000000
       251    1       -5.100000000000      -3.400000000000       5.100000000000
       252    1       -5.100000000000      -5.100000000000       3.400000000000
       253    1       -3.400000000000       5.100000000000       5.100000000000
       254    1       -5.100000000000       3.400000000000       5.100000000000
       255    1       -5.100000000000       5.100000000000       3.400000000000
       256    1        3.400000000000       5.100000000000      -5.100000000000
       257    1        5.100000000000       3.400000000000      -5.100000000000
       258    1        5.100000000000       5.100000000000      -3.400000000000
       259    1        5.100000000000      -3.400000000000      -5.100000000000
       260    1        3.400000000000      -5.100000000000      -5.100000000000
       261    1        5.100000000000      -5.100000000000      -3.400000000000
       262    1       -3.400000000000      -5.100000000000      -5.100000000000
       263    1       -5.100000000000      -3.400000000000      -5.100000000000
       264    1       -5.100000000000      -5.100000000000      -3.400000000000
       265    1       -3.400000000000       5.100000000000      -5.100000000000
       266    1       -5.100000000000       3.400000000000      -5.100000000000
       267    1       -5.100000000000       5.100000000000      -3.400000000000
       268    1        0.000000000000       8.500000000000       8.500000000000
       269    1        8.500000000000       0.000000000000       8.500000000000
       270    1        0.000000000000      -8.500000000000       8.500000000000
       271    1       -8.500000000000       0.000000000000       8.500000000000
       272    1        0.000000000000       8.500000000000      -8.500000000000
       273    1        8.500000000000       0.000000000000      -8.500000000000
       274    1        0.000000000000      -8.500000000000      -8.500000000000
       275    1       -8.500000000000       0.000000000000      -8.500000000000
       276    1        8.500000000000       8.500000000000       0.000000000000
       277    1        8.500000000000      -8.500000000000       0.000000000000
       278    1       -8.500000000000      -8.500000000000       0.000000000000
       279    1       -8.500000000000       8.500000000000       0.000000000000
       280    1        1.700000000000       6.800000000000       8.500000000000
       281    1        1.700000000000       8.500000000000       6.800000000000
       282    1        8.500000000000       1.700000000000       6.800000000000
       283    1        3.400000000000       5.100000000000       8.500000000000
       284    1        3.400000000000       8.500000000000       5.100000000000
       285    1        8.500000000000       3.400000000000       5.100000000000
       286    1        5.100000000000       3.400000000000       8.500000000000
       287    1        5.100000000000       8.500000000000       3.400000000000
       288    1        8.500000000000       5.100000000000       3.400000000000
       289    1        6.800000000000       1.700000000000       8.500000000000
       290    1        6.800000000000       8.500000000000       1.700000000000
       291    1        8.500000000000       6.800000000000       1.700000000000
       292    1        6.800000000000      -1.700000000000       8.500000000000
       293    1        8.500000000000      -1.700000000000       6.800000000000
       294    1        1.700000000000      -8.500000000000       6.800000000000
       295    1        5.100000000000      -3.400000000000       8.500000000000
       296    1        8.500000000000      -3.400000000000       5.100000000000
       297    1        3.400000000000      -8.500000000000       5.100000000000
       298    1        3.400000000000      -5.100000000000       8.500000000000
       299    1        8.500000000000      -5.100000000000       3.400000000000
       300    1        5.100000000000      -8.500000000000       3.400000000000
       301    1        1.700000000000      -6.800000000000       8.500000000000
       302    1        8.500000000000      -6.800000000000       1.700000000000
       303    1        6.800000000000      -8.500000000000       1.700000000000
       304    1       -1.700000000000      -6.800000000000       8.500000000000
       305    1       -1.700000000000      -8.500000000000       6.800000000000
       306    1       -8.500000000000      -1.700000000000       6.800000000000
       307    1       -3.400000000000      -5.100000000000       8.500000000000
       308    1       -3.400000000000      -8.500000000000       5.100000000000
       309    1       -8.500000000000      -3.400000000000       5.100000000000
       310    1       -5.100000000000      -3.400000000000       8.500000000000
       311    1       -5.100000000000      -8.500000000000       3.400000000000
       312    1       -8.500000000000      -5.100000000000       3.400000000000
       313    1       -6.800000000000      -1.700000000000       8.500000000000
       314    1       -6.800000000000      -8.500000000000       1.700000000000
       315    1       -8.500000000000      -6.800000000000       1.700000000000
       316    1       -1.700000000000       6.800000000000       8.500000000000
       317    1       -1.700000000000       8.500000000000       6.800000000000
       318    1       -8.500000000000       1.700000000000       6.800000000000
       319    1       -3.400000000000       5.100000000000       8.500000000000
       320    1       -3.400000000000       8.500000000000       5.100000000000
       321    1       -8.500000000000       3.400000000000       5.100000000000
       322    1       -5.100000000000       3.400000000000       8.500000000000
       323    1       -5.100000000000       8.500000000000       3.400000000000
       324    1       -8.500000000000       5.100000000000       3.400000000000
       325    1       -6.800000000000       1.700000000000       8.500000000000
       326    1       -6.800000000000       8.500000000000       1.700000000000
       327    1       -8.500000000000       6.800000000000       1.700000000000
       328    1        1.700000000000       6.800000000000      -8.500000000000
       329    1        1.700000000000       8.500000000000      -6.800000000000
       330    1        8.500000000000       1.700000000000      -6.800000000000
       331    1        3.400000000000       5.100000000000      -8.500000000000
       332    1        3.400000000000       8.500000000000      -5.100000000000
       333    1        8.500000000000       3.400000000000      -5.100000000000
       334    1        5.100000000000       3.400000000000      -8.500000000000
       335    1        5.100000000000       8.500000000000      -3.400000000000
       336    1        8.500000000000       5.100000000000      -3.400000000000
       337    1        6.800000000000       1.700000000000      -8.500000000000
       338    1        6.800000000000       8.500000000000      -1.700000000000
       339    1        8.500000000000       6.800000000000      -1.700000000000
       340    1        6.800000000000      -1.700000000000      -8.500000000000
       341    1        8.500000000000      -1.700000000000      -6.800000000000
       342    1        1.700000000000      -8.500000000000      -6.800000000000
       343    1        5.100000000000      -3.400000000000      -8.500000000000
       344    1        8.500000000000      -3.400000000000      -5.100000000000
       345    1        3.400000000000      -8.500000000000      -5.100000000000
       346    1        3.400000000000      -5.100000000000      -8.500000000000
       347    1        8.500000000000      -5.100000000000      -3.400000000000
       348    1        5.100000000000      -8.500000000000      -3.400000000000
       349    1        1.700000000000      -6.800000000000      -8.500000000000
       350    1        8.500000000000      -6.800000000000      -1.700000000000
       351    1        6.800000000000      -8.500000000000      -1.700000000000
       352    1       -1.700000000000      -6.800000000000      -8.500000000000
       353    1       -1.700000000000      -8.500000000000      -6.800000000000
       354    1       -8.500000000000      -1.700000000000      -6.800000000000
       355    1       -3.400000000000      -5.100000000000      -8.500000000000
       356    1       -3.400000000000      -8.500000000000      -5.100000000000
       357    1       -8.500000000000      -3.400000000000      -5.100000000000
       358    1       -5.100000000000      -3.400000000000      -8.500000000000
       359    1       -5.100000000000      -8.500000000000      -3.400000000000
       360    1       -8.500000000000      -5.100000000000      -3.400000000000
       361    1       -6.800000000000      -1.700000000000      -8.500000000000
       362    1       -6.800000000000      -8.500000000000      -1.700000000000
       363    1       -8.500000000000      -6.800000000000      -1.700000000000
       364    1       -1.700000000000       6.800000000000      -8.500000000000
       365    1       -1.700000000000       8.500000000000      -6.800000000000
       366    1       -8.500000000000       1.700000000000      -6.800000000000