 # 12345.00
 
        3871  atoms
           1  atom types
 
      -24.900493216083      24.900493216083  xlo xhi
      -23.718483944898      23.718483944898  ylo yhi
      -27.750000000000      27.750000000000  zlo zhi
 
Masses
 
            1   107.86820000            # Ag
 
Atoms # atomic
 
         1    1        0.000000000000       0.000000000000       0.000000000000
         2    1        0.000000000000       0.000000000000       2.700000000000
         3    1        2.415049321608       0.000000000000       1.207284876986
         4    1        0.746291282631       2.296848394490       1.207284876986
         5    1       -1.953815943435       1.419530374800       1.207284876986
         6    1       -1.953815943435      -1.419530374800       1.207284876986
         7    1        0.746291282631      -2.296848394490       1.207284876986
         8    1        1.953815943435       1.419530374800      -1.207284876986
         9    1       -0.746291282631       2.296848394490      -1.207284876986
        10    1       -2.415049321608       0.000000000000      -1.207284876986
        11    1       -0.746291282631      -2.296848394490      -1.207284876986
        12    1        1.953815943435      -1.419530374800      -1.207284876986
        13    1        0.000000000000       0.000000000000      -2.700000000000
        14    1        0.000000000000       0.000000000000       5.400000000000
        15    1        4.830098643217       0.000000000000       2.414569753972
        16    1        1.492582565261       4.593696788980       2.414569753972
        17    1       -3.907631886870       2.839060749601       2.414569753972
        18    1       -3.907631886870      -2.839060749601       2.414569753972
        19    1        1.492582565261      -4.593696788980       2.414569753972
        20    1        3.907631886870       2.839060749601      -2.414569753972
        21    1       -1.492582565261       4.593696788980      -2.414569753972
        22    1       -4.830098643217       0.000000000000      -2.414569753972
        23    1       -1.492582565261      -4.593696788980      -2.414569753972
        24    1        3.907631886870      -2.839060749601      -2.414569753972
        25    1        0.000000000000       0.000000000000      -5.400000000000
        26    1        2.415049321608       0.000000000000       3.907284876986
        27    1        0.746291282631       2.296848394490       3.907284876986
        28    1       -1.953815943435       1.419530374800       3.907284876986
        29    1       -1.953815943435      -1.419530374800       3.907284876986
        30    1        0.746291282631      -2.296848394490       3.907284876986
        31    1        1.953815943435       1.419530374800      -3.907284876986
        32    1       -0.746291282631       2.296848394490      -3.907284876986
        33    1       -2.415049321608       0.000000000000      -3.907284876986
        34    1       -0.746291282631      -2.296848394490      -3.907284876986
        35    1        1.953815943435      -1.419530374800      -3.907284876986
        36    1        0.000000000000       4.593696788980       0.000000000000
        37    1       -4.368865265043       1.419530374800       0.000000000000
        38    1       -2.700107226065      -3.716378769290       0.000000000000
        39    1        2.700107226065      -3.716378769290       0.000000000000
        40    1        4.368865265043       1.419530374800       0.000000000000
        41    1        2.700107226065       3.716378769290       0.000000000000
        42    1       -2.700107226065       3.716378769290       0.000000000000
        43    1       -4.368865265043      -1.419530374800       0.000000000000
        44    1       -0.000000000000      -4.593696788980       0.000000000000
        45    1        4.368865265043      -1.419530374800       0.000000000000
        46    1        3.161340604239       2.296848394490       2.414569753972
        47    1       -1.207524660804       3.716378769290       2.414569753972
        48    1       -3.907631886870       0.000000000000       2.414569753972
        49    1       -1.207524660804      -3.716378769290       2.414569753972
        50    1        3.161340604239      -2.296848394490       2.414569753972
        51    1        1.207524660804       3.716378769290      -2.414569753972
        52    1       -3.161340604239       2.296848394490      -2.414569753972
        53    1       -3.161340604239      -2.296848394490      -2.414569753972
        54    1        1.207524660804      -3.716378769290      -2.414569753972
        55    1        3.907631886870      -0.000000000000      -2.414569753972
        56    1        0.000000000000       0.000000000000       8.100000000000
        57    1        7.245147964825       0.000000000000       3.621854630958
        58    1        2.238873847892       6.890545183469       3.621854630958
        59    1       -5.861447830304       4.258591124401       3.621854630958
        60    1       -5.861447830304      -4.258591124401       3.621854630958
        61    1        2.238873847892      -6.890545183469       3.621854630958
        62    1        5.861447830304       4.258591124401      -3.621854630958
        63    1       -2.238873847892       6.890545183469      -3.621854630958
        64    1       -7.245147964825       0.000000000000      -3.621854630958
        65    1       -2.238873847892      -6.890545183469      -3.621854630958
        66    1        5.861447830304      -4.258591124401      -3.621854630958
        67    1        0.000000000000       0.000000000000      -8.100000000000
        68    1        2.415049321608       0.000000000000       6.607284876986
        69    1        4.830098643217       0.000000000000       5.114569753972
        70    1        0.746291282631       2.296848394490       6.607284876986
        71    1        1.492582565261       4.593696788980       5.114569753972
        72    1       -1.953815943435       1.419530374800       6.607284876986
        73    1       -3.907631886870       2.839060749601       5.114569753972
        74    1       -1.953815943435      -1.419530374800       6.607284876986
        75    1       -3.907631886870      -2.839060749601       5.114569753972
        76    1        0.746291282631      -2.296848394490       6.607284876986
        77    1        1.492582565261      -4.593696788980       5.114569753972
        78    1        1.953815943435       1.419530374800      -6.607284876986
        79    1        3.907631886870       2.839060749601      -5.114569753972
        80    1       -0.746291282631       2.296848394490      -6.607284876986
        81    1       -1.492582565261       4.593696788980      -5.114569753972
        82    1       -2.415049321608       0.000000000000      -6.607284876986
        83    1       -4.830098643217       0.000000000000      -5.114569753972
        84    1       -0.746291282631      -2.296848394490      -6.607284876986
        85    1       -1.492582565261      -4.593696788980      -5.114569753972
        86    1        1.953815943435      -1.419530374800      -6.607284876986
        87    1        3.907631886870      -2.839060749601      -5.114569753972
        88    1        0.746291282631       6.890545183469       1.207284876986
        89    1       -0.746291282631       6.890545183469      -1.207284876986
        90    1       -6.322681208478       2.839060749601       1.207284876986
        91    1       -6.783914586651       1.419530374800      -1.207284876986
        92    1       -4.653923169500      -5.135909144090       1.207284876986
        93    1       -3.446398508696      -6.013227163780      -1.207284876986
        94    1        3.446398508696      -6.013227163780       1.207284876986
        95    1        4.653923169500      -5.135909144090      -1.207284876986
        96    1        6.783914586651       1.419530374800       1.207284876986
        97    1        6.322681208478       2.839060749601      -1.207284876986
        98    1        3.446398508696       6.013227163780       1.207284876986
        99    1        4.653923169500       5.135909144090      -1.207284876986
       100    1       -4.653923169500       5.135909144090       1.207284876986
       101    1       -3.446398508696       6.013227163780      -1.207284876986
       102    1       -6.322681208478      -2.839060749601       1.207284876986
       103    1       -6.783914586651      -1.419530374800      -1.207284876986
       104    1        0.746291282631      -6.890545183469       1.207284876986
       105    1       -0.746291282631      -6.890545183469      -1.207284876986
       106    1        6.783914586651      -1.419530374800       1.207284876986
       107    1        6.322681208478      -2.839060749601      -1.207284876986
       108    1        5.576389925847       2.296848394490       3.621854630958
       109    1        3.907631886870       4.593696788980       3.621854630958
       110    1       -0.461233378173       6.013227163780       3.621854630958
       111    1       -3.161340604239       5.135909144090       3.621854630958
       112    1       -5.861447830304       1.419530374800       3.621854630958
       113    1       -5.861447830304      -1.419530374800       3.621854630958
       114    1       -3.161340604239      -5.135909144090       3.621854630958
       115    1       -0.461233378174      -6.013227163780       3.621854630958
       116    1        3.907631886870      -4.593696788980       3.621854630958
       117    1        5.576389925847      -2.296848394490       3.621854630958
       118    1        3.161340604239       5.135909144090      -3.621854630958
       119    1        0.461233378174       6.013227163780      -3.621854630958
       120    1       -3.907631886870       4.593696788980      -3.621854630958
       121    1       -5.576389925847       2.296848394490      -3.621854630958
       122    1       -5.576389925847      -2.296848394490      -3.621854630958
       123    1       -3.907631886870      -4.593696788980      -3.621854630958
       124    1        0.461233378173      -6.013227163780      -3.621854630958
       125    1        3.161340604239      -5.135909144090      -3.621854630958
       126    1        5.861447830304      -1.419530374800      -3.621854630958
       127    1        5.861447830304       1.419530374800      -3.621854630958
       128    1        3.161340604239       2.296848394490       5.114569753972
       129    1       -1.207524660804       3.716378769290       5.114569753972
       130    1       -3.907631886870       0.000000000000       5.114569753972
       131    1       -1.207524660804      -3.716378769290       5.114569753972
       132    1        3.161340604239      -2.296848394490       5.114569753972
       133    1        1.207524660804       3.716378769290      -5.114569753972
       134    1       -3.161340604239       2.296848394490      -5.114569753972
       135    1       -3.161340604239      -2.296848394490      -5.114569753972
       136    1        1.207524660804      -3.716378769290      -5.114569753972
       137    1        3.907631886870      -0.000000000000      -5.114569753972
       138    1       -1.953815943435       6.013227163780       1.207284876986
       139    1       -6.322681208478       0.000000000000       1.207284876986
       140    1       -1.953815943435      -6.013227163780       1.207284876986
       141    1        5.115156547674      -3.716378769290       1.207284876986
       142    1        5.115156547674       3.716378769290       1.207284876986
       143    1        1.953815943435       6.013227163780      -1.207284876986
       144    1       -5.115156547674       3.716378769290      -1.207284876986
       145    1       -5.115156547674      -3.716378769290      -1.207284876986
       146    1        1.953815943435      -6.013227163780      -1.207284876986
       147    1        6.322681208478      -0.000000000000      -1.207284876986
       148    1        0.000000000000       0.000000000000      10.800000000000
       149    1        9.660197286433       0.000000000000       4.829139507944
       150    1        2.985165130523       9.187393577959       4.829139507944
       151    1       -7.815263773739       5.678121499201       4.829139507944
       152    1       -7.815263773739      -5.678121499201       4.829139507944
       153    1        2.985165130523      -9.187393577959       4.829139507944
       154    1        7.815263773739       5.678121499201      -4.829139507944
       155    1       -2.985165130523       9.187393577959      -4.829139507944
       156    1       -9.660197286433       0.000000000000      -4.829139507944
       157    1       -2.985165130523      -9.187393577959      -4.829139507944
       158    1        7.815263773739      -5.678121499201      -4.829139507944
       159    1        0.000000000000       0.000000000000     -10.800000000000
       160    1        2.415049321608       0.000000000000       9.307284876986
       161    1        4.830098643217       0.000000000000       7.814569753972
       162    1        7.245147964825       0.000000000000       6.321854630958
       163    1        0.746291282631       2.296848394490       9.307284876986
       164    1        1.492582565261       4.593696788980       7.814569753972
       165    1        2.238873847892       6.890545183469       6.321854630958
       166    1       -1.953815943435       1.419530374800       9.307284876986
       167    1       -3.907631886870       2.839060749601       7.814569753972
       168    1       -5.861447830304       4.258591124401       6.321854630958
       169    1       -1.953815943435      -1.419530374800       9.307284876986
       170    1       -3.907631886870      -2.839060749601       7.814569753972
       171    1       -5.861447830304      -4.258591124401       6.321854630958
       172    1        0.746291282631      -2.296848394490       9.307284876986
       173    1        1.492582565261      -4.593696788980       7.814569753972
       174    1        2.238873847892      -6.890545183469       6.321854630958
       175    1        1.953815943435       1.419530374800      -9.307284876986
       176    1        3.907631886870       2.839060749601      -7.814569753972
       177    1        5.861447830304       4.258591124401      -6.321854630958
       178    1       -0.746291282631       2.296848394490      -9.307284876986
       179    1       -1.492582565261       4.593696788980      -7.814569753972
       180    1       -2.238873847892       6.890545183469      -6.321854630958
       181    1       -2.415049321608       0.000000000000      -9.307284876986
       182    1       -4.830098643217       0.000000000000      -7.814569753972
       183    1       -7.245147964825       0.000000000000      -6.321854630958
       184    1       -0.746291282631      -2.296848394490      -9.307284876986
       185    1       -1.492582565261      -4.593696788980      -7.814569753972
       186    1       -2.238873847892      -6.890545183469      -6.321854630958
       187    1        1.953815943435      -1.419530374800      -9.307284876986
       188    1        3.907631886870      -2.839060749601      -7.814569753972
       189    1        5.861447830304      -4.258591124401      -6.321854630958
       190    1        1.492582565261       9.187393577959       2.414569753972
       191    1        0.000000000000       9.187393577959       0.000000000000
       192    1       -1.492582565261       9.187393577959      -2.414569753972
       193    1       -8.276497151913       4.258591124401       2.414569753972
       194    1       -8.737730530086       2.839060749601       0.000000000000
       195    1       -9.198963908260       1.419530374800      -2.414569753972
       196    1       -6.607739112935      -6.555439518891       2.414569753972
       197    1       -5.400214452131      -7.432757538580       0.000000000000
       198    1       -4.192689791327      -8.310075558270      -2.414569753972
       199    1        4.192689791327      -8.310075558270       2.414569753972
       200    1        5.400214452131      -7.432757538580       0.000000000000
       201    1        6.607739112935      -6.555439518891      -2.414569753972
       202    1        9.198963908260       1.419530374800       2.414569753972
       203    1        8.737730530086       2.839060749601       0.000000000000
       204    1        8.276497151913       4.258591124401      -2.414569753972
       205    1        4.192689791327       8.310075558270       2.414569753972
       206    1        5.400214452131       7.432757538580       0.000000000000
       207    1        6.607739112935       6.555439518891      -2.414569753972
       208    1       -6.607739112935       6.555439518891       2.414569753972
       209    1       -5.400214452131       7.432757538580       0.000000000000
       210    1       -4.192689791327       8.310075558270      -2.414569753972
       211    1       -8.276497151913      -4.258591124401       2.414569753972
       212    1       -8.737730530086      -2.839060749601       0.000000000000
       213    1       -9.198963908260      -1.419530374800      -2.414569753972
       214    1        1.492582565261      -9.187393577959       2.414569753972
       215    1       -0.000000000000      -9.187393577959       0.000000000000
       216    1       -1.492582565261      -9.187393577959      -2.414569753972
       217    1        9.198963908260      -1.419530374800       2.414569753972
       218    1        8.737730530086      -2.839060749601       0.000000000000
       219    1        8.276497151913      -4.258591124401      -2.414569753972
       220    1        7.991439247456       2.296848394490       4.829139507944
       221    1        6.322681208478       4.593696788980       4.829139507944
       222    1        4.653923169500       6.890545183469       4.829139507944
       223    1        0.285057904457       8.310075558270       4.829139507944
       224    1       -2.415049321608       7.432757538580       4.829139507944
       225    1       -5.115156547674       6.555439518891       4.829139507944
       226    1       -7.815263773739       2.839060749601       4.829139507944
       227    1       -7.815263773739       0.000000000000       4.829139507944
       228    1       -7.815263773739      -2.839060749601       4.829139507944
       229    1       -5.115156547674      -6.555439518891       4.829139507944
       230    1       -2.415049321608      -7.432757538580       4.829139507944
       231    1        0.285057904457      -8.310075558270       4.829139507944
       232    1        4.653923169500      -6.890545183469       4.829139507944
       233    1        6.322681208478      -4.593696788980       4.829139507944
       234    1        7.991439247456      -2.296848394490       4.829139507944
       235    1        5.115156547674       6.555439518891      -4.829139507944
       236    1        2.415049321608       7.432757538580      -4.829139507944
       237    1       -0.285057904457       8.310075558270      -4.829139507944
       238    1       -4.653923169500       6.890545183469      -4.829139507944
       239    1       -6.322681208478       4.593696788980      -4.829139507944
       240    1       -7.991439247456       2.296848394490      -4.829139507944
       241    1       -7.991439247456      -2.296848394490      -4.829139507944
       242    1       -6.322681208478      -4.593696788980      -4.829139507944
       243    1       -4.653923169500      -6.890545183469      -4.829139507944
       244    1       -0.285057904457      -8.310075558270      -4.829139507944
       245    1        2.415049321608      -7.432757538580      -4.829139507944
       246    1        5.115156547674      -6.555439518891      -4.829139507944
       247    1        7.815263773739      -2.839060749601      -4.829139507944
       248    1        7.815263773739      -0.000000000000      -4.829139507944
       249    1        7.815263773739       2.839060749601      -4.829139507944
       250    1        3.161340604239       2.296848394490       7.814569753972
       251    1       -1.207524660804       3.716378769290       7.814569753972
       252    1       -3.907631886870       0.000000000000       7.814569753972
       253    1       -1.207524660804      -3.716378769290       7.814569753972
       254    1        3.161340604239      -2.296848394490       7.814569753972
       255    1        5.576389925847       2.296848394490       6.321854630958
       256    1        3.907631886870       4.593696788980       6.321854630958
       257    1       -0.461233378173       6.013227163780       6.321854630958
       258    1       -3.161340604239       5.135909144090       6.321854630958
       259    1       -5.861447830304       1.419530374800       6.321854630958
       260    1       -5.861447830304      -1.419530374800       6.321854630958
       261    1       -3.161340604239      -5.135909144090       6.321854630958
       262    1       -0.461233378174      -6.013227163780       6.321854630958
       263    1        3.907631886870      -4.593696788980       6.321854630958
       264    1        5.576389925847      -2.296848394490       6.321854630958
       265    1        1.207524660804       3.716378769290      -7.814569753972
       266    1       -3.161340604239       2.296848394490      -7.814569753972
       267    1       -3.161340604239      -2.296848394490      -7.814569753972
       268    1        1.207524660804      -3.716378769290      -7.814569753972
       269    1        3.907631886870      -0.000000000000      -7.814569753972
       270    1        3.161340604239       5.135909144090      -6.321854630958
       271    1        0.461233378174       6.013227163780      -6.321854630958
       272    1       -3.907631886870       4.593696788980      -6.321854630958
       273    1       -5.576389925847       2.296848394490      -6.321854630958
       274    1       -5.576389925847      -2.296848394490      -6.321854630958
       275    1       -3.907631886870      -4.593696788980      -6.321854630958
       276    1        0.461233378173      -6.013227163780      -6.321854630958
       277    1        3.161340604239      -5.135909144090      -6.321854630958
       278    1        5.861447830304      -1.419530374800      -6.321854630958
       279    1        5.861447830304       1.419530374800      -6.321854630958
       280    1       -1.207524660804       8.310075558270       2.414569753972
       281    1       -3.907631886870       7.432757538580       2.414569753972
       282    1       -8.276497151913       1.419530374800       2.414569753972
       283    1       -8.276497151913      -1.419530374800       2.414569753972
       284    1       -3.907631886870      -7.432757538580       2.414569753972
       285    1       -1.207524660804      -8.310075558270       2.414569753972
       286    1        5.861447830304      -6.013227163780       2.414569753972
       287    1        7.530205869282      -3.716378769290       2.414569753972
       288    1       -2.700107226065       8.310075558270       0.000000000000
       289    1       -8.737730530086       0.000000000000       0.000000000000
       290    1       -2.700107226065      -8.310075558270       0.000000000000
       291    1        7.068972491109      -5.135909144090       0.000000000000
       292    1        7.530205869282       3.716378769290       2.414569753972
       293    1        5.861447830304       6.013227163780       2.414569753972
       294    1        7.068972491109       5.135909144090       0.000000000000
       295    1        3.907631886870       7.432757538580      -2.414569753972
       296    1        1.207524660804       8.310075558270      -2.414569753972
       297    1       -5.861447830304       6.013227163780      -2.414569753972
       298    1       -7.530205869282       3.716378769290      -2.414569753972
       299    1       -7.530205869282      -3.716378769290      -2.414569753972
       300    1       -5.861447830304      -6.013227163780      -2.414569753972
       301    1        1.207524660804      -8.310075558270      -2.414569753972
       302    1        3.907631886870      -7.432757538580      -2.414569753972
       303    1        2.700107226065       8.310075558270       0.000000000000
       304    1       -7.068972491109       5.135909144090       0.000000000000
       305    1       -7.068972491109      -5.135909144090       0.000000000000
       306    1        2.700107226065      -8.310075558270       0.000000000000
       307    1        8.276497151913      -1.419530374800      -2.414569753972
       308    1        8.276497151913       1.419530374800      -2.414569753972
       309    1        8.737730530086      -0.000000000000       0.000000000000
       310    1        0.000000000000       0.000000000000      13.500000000000
       311    1       12.075246608042       0.000000000000       6.036424384930
       312    1        3.731456413153      11.484241972449       6.036424384930
       313    1       -9.769079717174       7.097651874002       6.036424384930
       314    1       -9.769079717174      -7.097651874002       6.036424384930
       315    1        3.731456413153     -11.484241972449       6.036424384930
       316    1        9.769079717174       7.097651874002      -6.036424384930
       317    1       -3.731456413153      11.484241972449      -6.036424384930
       318    1      -12.075246608042       0.000000000000      -6.036424384930
       319    1       -3.731456413153     -11.484241972449      -6.036424384930
       320    1        9.769079717174      -7.097651874002      -6.036424384930
       321    1        0.000000000000       0.000000000000     -13.500000000000
       322    1        2.415049321608       0.000000000000      12.007284876986
       323    1        4.830098643217       0.000000000000      10.514569753972
       324    1        7.245147964825       0.000000000000       9.021854630958
       325    1        9.660197286433       0.000000000000       7.529139507944
       326    1        0.746291282631       2.296848394490      12.007284876986
       327    1        1.492582565261       4.593696788980      10.514569753972
       328    1        2.238873847892       6.890545183469       9.021854630958
       329    1        2.985165130523       9.187393577959       7.529139507944
       330    1       -1.953815943435       1.419530374800      12.007284876986
       331    1       -3.907631886870       2.839060749601      10.514569753972
       332    1       -5.861447830304       4.258591124401       9.021854630958
       333    1       -7.815263773739       5.678121499201       7.529139507944
       334    1       -1.953815943435      -1.419530374800      12.007284876986
       335    1       -3.907631886870      -2.839060749601      10.514569753972
       336    1       -5.861447830304      -4.258591124401       9.021854630958
       337    1       -7.815263773739      -5.678121499201       7.529139507944
       338    1        0.746291282631      -2.296848394490      12.007284876986
       339    1        1.492582565261      -4.593696788980      10.514569753972
       340    1        2.238873847892      -6.890545183469       9.021854630958
       341    1        2.985165130523      -9.187393577959       7.529139507944
       342    1        1.953815943435       1.419530374800     -12.007284876986
       343    1        3.907631886870       2.839060749601     -10.514569753972
       344    1        5.861447830304       4.258591124401      -9.021854630958
       345    1        7.815263773739       5.678121499201      -7.529139507944
       346    1       -0.746291282631       2.296848394490     -12.007284876986
       347    1       -1.492582565261       4.593696788980     -10.514569753972
       348    1       -2.238873847892       6.890545183469      -9.021854630958
       349    1       -2.985165130523       9.187393577959      -7.529139507944
       350    1       -2.415049321608       0.000000000000     -12.007284876986
       351    1       -4.830098643217       0.000000000000     -10.514569753972
       352    1       -7.245147964825       0.000000000000      -9.021854630958
       353    1       -9.660197286433       0.000000000000      -7.529139507944
       354    1       -0.746291282631      -2.296848394490     -12.007284876986
       355    1       -1.492582565261      -4.593696788980     -10.514569753972
       356    1       -2.238873847892      -6.890545183469      -9.021854630958
       357    1       -2.985165130523      -9.187393577959      -7.529139507944
       358    1        1.953815943435      -1.419530374800     -12.007284876986
       359    1        3.907631886870      -2.839060749601     -10.514569753972
       360    1        5.861447830304      -4.258591124401      -9.021854630958
       361    1        7.815263773739      -5.678121499201      -7.529139507944
       362    1        2.238873847892      11.484241972449       3.621854630958
       363    1        0.746291282631      11.484241972449       1.207284876986
       364    1       -0.746291282631      11.484241972449      -1.207284876986
       365    1       -2.238873847892      11.484241972449      -3.621854630958
       366    1      -10.230313095348       5.678121499201       3.621854630958